ITEM: TIMESTEP
200
ITEM: NUMBER OF ATOMS
256
ITEM: BOX BOUNDS pp pp pp
-3.1748 3.1748
-3.1748 3.1748
-3.1748 3.1748
ITEM: ATOMS type xu yu zu 
1 2.07998 -3.57345 -1.46083 
1 -0.112402 0.809687 0.754901 
1 2.98498 -1.25594 3.39862 
1 -1.81673 0.577939 3.10507 
1 1.51794 -0.490146 -2.14835 
1 -0.0220131 2.26596 -2.21313 
1 -0.584781 1.89496 -2.94047 
1 3.61207 1.94411 -2.5179 
1 -2.70068 1.27304 0.576247 
1 -2.08178 1.69666 -1.76193 
1 -2.30537 -2.82069 -1.19477 
1 2.25349 1.34443 3.13338 
1 -3.32147 -1.65822 0.167018 
1 -0.0898666 -0.821087 0.0624358 
1 1.11471 -1.06989 3.33823 
1 -2.769 -2.91908 -2.42264 
1 1.51008 1.89208 -1.20478 
1 2.48496 1.18012 0.425314 
1 -0.780433 2.62472 0.957137 
1 -1.26563 -0.617344 -0.187903 
1 2.86646 -1.61478 2.49366 
1 -1.03755 -1.31575 3.4163 
1 -0.928775 -2.91398 -1.00231 
1 2.12544 -1.51638 0.372507 
1 -0.924496 0.780165 1.42873 
1 0.0217376 0.484827 1.77861 
1 2.93219 -2.42558 -3.11326 
1 -1.28521 -0.247558 -1.12517 
1 0.0220928 1.61888 1.60785 
1 -1.61723 0.713856 0.667211 
1 -1.58345 -0.855354 0.973085 
1 2.01013 -2.03019 -1.02562 
1 0.996678 -2.0496 -3.26716 
1 0.494122 -2.62395 0.825759 
1 -0.796279 0.552074 -1.37675 
1 -1.96352 -0.225132 -2.27701 
1 -0.971961 -0.222212 1.39097 
1 0.251236 0.51221 -0.839243 
1 -1.64774 1.51521 -2.64967 
1 -1.74012 -1.21701 -2.05103 
1 -1.02259 -1.99668 1.3307 
1 -2.76315 -0.355258 1.26446 
1 -1.88499 -0.545738 1.82918 
1 -1.89055 2.68294 -1.66752 
1 -3.32882 1.03165 2.3297 
1 -0.159436 -0.421078 2.12124 
1 0.618643 1.16286 2.19091 
1 -0.258435 1.02813 -0.200009 
1 2.36679 0.151056 -0.004267 
1 2.30787 -0.27529 -0.979724 
1 -3.06921 -0.691588 2.31061 
1 2.83872 2.44181 -0.854532 
1 0.89161 1.19878 -0.984168 
1 -2.25435 2.32188 -0.728995 
1 -0.67329 2.55293 -1.38726 
1 2.01384 -1.749 -3.07589 
1 -2.2018 -2.15221 0.963011 
1 2.18369 0.12989 -1.83614 
1 -2.21727 2.34684 2.26507 
1 -3.21372 1.71796 -0.12172 
1 -0.752665 -2.13209 -0.317321 
1 2.25695 -0.496105 0.820947 
1 -1.48002 -1.3591 2.46648 
1 -1.57597 2.73626 0.480708 
1 0.975093 -1.87534 0.454013 
1 -2.83229 2.73388 1.2319 
1 -2.99134 1.78336 -1.60557 
1 -2.48204 -2.59787 2.91725 
1 2.43128 1.51511 -1.10953 
1 -0.583666 -2.58681 2.94693 
1 2.77157 -0.756069 0.00620353 
1 2.26917 -0.790135 2.62841 
1 -1.20869 0.522147 -0.392688 
1 0.78424 1.03524 0.0490749 
1 -1.33075 -2.47141 0.552611 
1 -1.22309 -2.10516 -1.57929 
1 1.5143 0.886142 -1.94311 
1 -0.20883 0.854373 2.73349 
1 0.330151 2.82202 -0.3648 
1 0.766984 1.55144 -1.8995 
1 2.52132 1.78599 2.00046 
1 0.531306 -0.0356466 2.89835 
1 2.13479 2.18069 0.190261 
1 -1.95106 2.13348 1.2092 
1 -0.727468 -2.21002 2.20588 
1 1.71947 1.47278 1.33966 
1 -0.510292 -0.978164 -0.842373 
1 -3.09712 2.77623 -1.62781 
1 -2.06623 2.53778 -3.05042 
1 0.310061 -0.207139 1.09584 
1 1.47409 1.6058 -2.58016 
1 2.49078 -0.384656 -2.66041 
1 -0.680921 -1.28393 -1.95205 
1 1.11992 1.9559 0.412585 
1 0.281389 1.21717 -2.91883 
1 -3.05173 -2.0212 1.77921 
1 1.44953 1.79666 2.25228 
1 1.92667 0.858092 2.11219 
1 -2.35138 -1.40965 1.57968 
1 0.438468 1.82322 -0.317061 
1 1.34992 -1.61126 -1.93334 
1 -2.05962 -2.12706 -0.137706 
1 -2.82069 1.69495 1.67412 
1 -0.652856 3.04735 2.05006 
1 -2.55238 -1.88288 -2.64166 
1 -3.27248 -2.404 0.841515 
1 -0.299612 -0.76664 -3.13322 
1 0.199719 -2.79448 -2.48175 
1 2.36958 -3.35366 -2.45149 
1 -0.428223 2.2228 -0.273215 
1 0.944372 0.281001 -2.54135 
1 0.720446 2.46307 -1.41915 
1 0.174288 -3.06018 -1.22918 
1 0.803971 -3.22309 -3.07692 
1 0.995346 0.968964 1.18138 
1 -0.141693 2.78672 -3.08671 
1 1.4705 -3.43368 0.474318 
1 -1.11055 2.36117 2.67427 
1 -0.957988 -0.344457 -2.31452 
1 0.957802 -2.21228 -1.16051 
1 1.3777 3.22841 -1.03683 
1 2.9123 2.03282 0.942831 
1 1.85766 -0.238987 1.89457 
1 1.4256 -2.60111 -0.0580074 
1 1.98819 0.703944 -1.02196 
1 2.54542 -0.896151 1.66261 
1 2.60417 2.29055 3.23675 
1 -0.848951 0.938181 -2.82868 
1 -1.67503 -2.14128 -3.12467 
1 -3.25057 -0.20628 -2.01024 
1 2.4222 0.173648 2.66192 
1 2.2933 -1.89261 1.56381 
1 0.690529 2.02821 -2.95837 
1 -1.08875 2.14985 1.71583 
1 0.17617 1.75889 0.58989 
1 1.79966 -2.4792 2.25311 
1 -1.54098 -0.409317 2.88205 
1 2.82262 1.09502 -2.20582 
1 -2.13231 1.31557 2.46544 
1 1.62099 2.53016 -3.4281 
1 -1.28179 1.36442 -0.807407 
1 -1.30523 2.45114 -0.686538 
1 2.9444 0.175029 1.88578 
1 1.34513 0.238492 -0.289958 
1 -0.668298 3.21469 -2.2014 
1 -1.61414 -3.00207 2.46264 
1 2.46427 3.34476 1.56409 
1 0.336379 -1.26445 1.17641 
1 1.33209 2.65508 -2.25882 
1 1.54191 -0.0803393 3.05718 
1 1.00223 -2.2384 1.68962 
1 -0.684583 3.15755 0.0470791 
1 -2.94694 2.85762 -3.32615 
1 -0.840704 0.190204 2.41499 
1 0.010772 -2.13967 1.63219 
1 0.342183 -2.59095 2.57728 
1 1.4862 -0.804458 -1.16293 
1 2.09185 0.535729 -2.65248 
1 2.43688 -2.34671 -0.102675 
1 0.840326 2.22432 1.47833 
1 1.783 -2.5686 0.813858 
1 2.78161 3.59629 -1.22564 
1 -1.71443 -3.09545 -0.374522 
1 -1.2775 -3.24491 -3.00705 
1 -1.74137 -2.75803 -2.22795 
1 -2.09995 -0.685217 -1.17313 
1 1.67829 -2.70891 3.26897 
1 1.73651 1.45563 -0.435138 
1 0.780143 0.166862 -1.61816 
1 -2.4179 -1.07975 0.55031 
1 -1.69548 1.51902 0.0647615 
1 1.74582 0.602459 0.516366 
1 0.696884 2.62226 2.38242 
1 -1.96264 -2.18359 1.98967 
1 -2.21009 1.24893 -0.874346 
1 0.869 -0.61721 0.423684 
1 -2.34555 0.286131 -1.44793 
1 1.20932 0.9726 3.018 
1 -2.49923 0.638908 1.56379 
1 3.07471 0.21672 0.695717 
1 2.05942 -2.48335 -1.89474 
1 -3.23452 0.802506 -1.40831 
1 1.9018 2.42143 1.14483 
1 -0.2795 -1.9111 0.459067 
1 -1.51604 -1.5492 -0.684905 
1 0.347328 0.179177 0.112182 
1 -2.95351 1.81944 2.78269 
1 0.473278 -1.49563 2.35316 
1 1.33413 -0.104251 1.05584 
1 3.04521 -2.08112 -2.04567 
1 -1.29929 -1.54186 0.329356 
1 -0.65379 0.0560903 0.434325 
1 -0.835697 1.47378 -1.8574 
1 1.60397 -1.44766 2.3557 
1 -1.54628 3.19537 1.45425 
1 2.77409 -1.2616 -1.03749 
1 0.548711 -0.779249 -2.10663 
1 1.24067 2.40259 -0.421152 
1 -2.52115 -3.04711 1.91123 
1 -0.00315456 1.89533 2.55421 
1 -2.84465 -1.08986 -1.97421 
1 -2.16932 0.0659472 -0.473473 
1 0.926519 0.283099 2.03837 
1 2.46606 -3.14667 2.80591 
1 -0.538207 -2.83422 1.11215 
1 2.79653 2.95529 0.494422 
1 -2.4507 -2.97274 0.463607 
1 3.28967 -0.179389 -0.926681 
1 -0.20934 1.59894 -1.14033 
1 -0.606649 -0.972442 0.860588 
1 -2.47823 0.915535 -2.34482 
1 0.225259 -2.52732 -0.303954 
1 0.616273 -0.47397 -0.674166 
1 -1.65183 0.363085 2.11959 
1 -0.661363 -1.18611 1.7535 
1 -0.39353 -0.0693902 -0.523009 
1 -3.03996 0.757617 -3.1745 
1 0.343628 2.83389 0.544384 
1 -2.59879 -1.58596 2.56509 
1 0.0510581 0.921838 -1.94238 
1 -0.775309 -2.14554 -2.4732 
1 -0.219807 0.151175 -2.75216 
1 1.74376 -0.649614 -0.0983624 
1 -1.17462 2.32877 -2.17003 
1 -0.181801 -0.200038 -1.58157 
1 -2.38061 -0.0388645 0.424803 
1 2.80351 1.04339 1.3315 
1 -0.177189 -1.71932 3.20424 
1 3.3154 -2.11674 -0.718575 
1 -1.52535 0.732741 -1.91364 
1 2.26195 1.96472 -2.03168 
1 -2.38266 -1.18698 -0.466772 
1 -2.59526 2.35307 0.298055 
1 0.433594 -1.23664 -1.29298 
1 0.236216 2.9677 1.53901 
1 -1.07865 1.17039 2.3584 
1 0.958054 -0.680498 1.92245 
1 -0.208348 -2.10046 -1.45107 
1 -0.897535 1.6075 0.724498 
1 -2.54983 0.132272 2.5306 
1 -2.01382 -1.10474 -3.0356 
1 1.14258 -1.34987 -0.475631 
1 0.354546 -1.78795 -2.19997 
1 0.160074 -1.5938 -0.407038 
1 -3.26754 2.63111 2.15163 
1 2.45114 -1.24228 -2.13108 
1 0.905431 -2.70408 -1.96224 
1 1.62626 -1.18564 1.15297 
1 3.27862 0.70451 -0.404846 
1 -2.76015 -0.34243 3.34935 
1 3.05425 -1.29433 1.03039 
1 1.97375 2.67368 2.07885 
1 -2.27591 -1.82705 -1.42104 
1 1.16263 3.16682 1.66582 
1 -2.91133 -3.28636 -0.362156 
1 2.09567 -3.32429 -0.458008 
