ITEM: TIMESTEP
300
ITEM: NUMBER OF ATOMS
256
ITEM: BOX BOUNDS pp pp pp
-3.1748 3.1748
-3.1748 3.1748
-3.1748 3.1748
ITEM: ATOMS type xu yu zu 
1 2.10844 -3.48039 -1.47888 
1 -0.323715 0.900726 0.708992 
1 2.90487 -1.39023 3.43839 
1 -1.92162 0.703722 3.05827 
1 1.62091 -0.509102 -2.4588 
1 -0.109269 2.36433 -2.09924 
1 -0.396248 1.72597 -2.876 
1 3.56475 1.92178 -2.57289 
1 -2.57996 1.13398 0.378114 
1 -1.89036 1.46502 -1.99139 
1 -2.73731 -3.0528 -1.34375 
1 2.17658 1.2892 2.94725 
1 -3.17988 -1.68232 0.171376 
1 -0.453393 -0.998892 0.260202 
1 1.0152 -1.13877 3.4403 
1 -2.57082 -3.13151 -2.43236 
1 1.79944 1.75508 -1.39183 
1 2.53259 1.15617 0.353682 
1 -0.740423 2.74663 0.957547 
1 -1.6123 -0.770289 0.125975 
1 2.55739 -1.74951 2.58257 
1 -1.08507 -1.08847 3.44685 
1 -1.33422 -2.94916 -1.17292 
1 2.12161 -1.64375 0.227092 
1 -0.995701 1.08797 1.59156 
1 -0.128899 0.736639 1.78147 
1 2.95714 -2.43777 -3.1091 
1 -1.18902 -0.325869 -1.42624 
1 -0.260176 1.94571 1.29572 
1 -1.67422 0.639096 0.853389 
1 -1.71165 -0.267239 1.22229 
1 2.12106 -1.74003 -0.788279 
1 0.798222 -2.20338 -3.20291 
1 0.674576 -2.49479 1.01233 
1 -0.717105 0.59159 -1.13088 
1 -1.79916 -0.537236 -2.2052 
1 -0.69311 0.0246622 2.03468 
1 0.308663 0.309028 -0.735051 
1 -2.01411 1.65932 -3.13862 
1 -1.59934 -1.43551 -1.9126 
1 -1.31654 -1.61691 1.04838 
1 -2.77264 -0.561099 1.36401 
1 -1.50296 -0.621553 2.24038 
1 -1.87658 2.59322 -1.68165 
1 -3.13404 1.02654 2.08419 
1 0.0368325 -0.577768 2.01537 
1 0.466306 1.56448 1.91402 
1 -0.338249 1.09696 -0.288917 
1 2.32636 0.0568618 -0.253175 
1 2.07878 -0.678624 -1.19758 
1 -3.25873 -0.465371 2.59149 
1 2.85412 2.5892 -0.959961 
1 1.06459 0.933845 -1.04716 
1 -2.23064 2.71553 -0.737183 
1 -0.274973 2.35062 -1.08593 
1 2.03569 -1.85763 -2.90513 
1 -2.15408 -2.22465 1.29701 
1 2.33858 -0.028678 -2.03848 
1 -2.01273 2.31104 2.22752 
1 -3.27283 1.69169 -0.258771 
1 -0.594751 -2.4038 -0.394473 
1 2.5093 -0.235643 0.883708 
1 -1.60064 -1.60144 2.60542 
1 -1.65723 2.69175 0.385727 
1 1.13494 -1.58984 0.540573 
1 -2.54531 2.5762 1.34556 
1 -2.61029 1.77279 -1.18829 
1 -2.35407 -2.62396 3.06008 
1 2.65741 1.48843 -1.0651 
1 -0.973338 -2.7172 3.08916 
1 2.74223 -0.967146 -0.302695 
1 2.0783 -0.854845 3.12246 
1 -1.40088 0.878084 -0.311392 
1 0.889412 0.837219 0.105698 
1 -1.46768 -2.60417 0.414908 
1 -1.2009 -1.95699 -1.0694 
1 1.81804 0.968141 -1.87299 
1 0.0892129 1.15287 2.75206 
1 0.526006 2.67847 -0.410924 
1 0.956353 1.6093 -1.7877 
1 2.53181 1.79705 1.80946 
1 0.170618 0.204285 2.63003 
1 2.33702 2.18726 0.206436 
1 -1.65813 1.9244 1.02048 
1 -0.778728 -2.45094 1.93865 
1 1.68106 1.68417 1.12581 
1 -0.618533 -0.980897 -0.745519 
1 -3.1399 2.57001 -1.89773 
1 -2.0227 2.66131 -3.1849 
1 0.242528 -0.0124603 1.14739 
1 1.38171 1.68005 -2.94153 
1 2.90814 -0.0608447 -2.96051 
1 -0.48783 -1.12105 -2.03397 
1 1.2115 1.95872 0.189436 
1 0.472986 1.33046 -2.63832 
1 -2.93091 -2.08655 1.82002 
1 1.3234 1.77873 2.40758 
1 1.74089 0.923399 1.88821 
1 -2.16974 -1.37198 1.87476 
1 0.50922 1.71525 -0.386181 
1 1.28475 -1.93734 -2.34711 
1 -2.367 -2.18503 0.187043 
1 -2.52352 1.46785 1.33792 
1 -0.652347 2.88671 1.91245 
1 -2.52997 -2.0735 -2.54994 
1 -3.22781 -2.76728 1.17663 
1 -0.0389595 -0.748235 -2.97501 
1 -0.182932 -3.0695 -2.56297 
1 2.8133 -2.95802 -2.36493 
1 -0.297969 2.11193 -0.122972 
1 1.18411 0.501721 -2.44549 
1 0.772963 2.48889 -1.40782 
1 0.128013 -2.95494 -1.43753 
1 0.827786 -3.08179 -3.38355 
1 0.861951 1.0088 1.14041 
1 -0.0971144 2.98702 -3.45164 
1 1.21422 -3.33279 0.16529 
1 -1.13906 2.20091 2.94026 
1 -0.77042 -0.228703 -2.34306 
1 0.845147 -2.22705 -1.31586 
1 1.27677 3.26767 -1.11504 
1 3.03816 1.81824 0.9664 
1 1.86223 -0.201535 2.11628 
1 1.45101 -2.37674 -0.241897 
1 1.95905 0.392388 -1.07372 
1 2.54799 -0.957589 1.78487 
1 2.69324 2.09703 2.93623 
1 -0.890599 0.664322 -2.72814 
1 -1.6105 -1.9642 -2.7258 
1 -3.08972 -0.216975 -1.89844 
1 2.49987 0.566118 2.46527 
1 2.52103 -1.85173 1.15082 
1 0.641598 2.43218 -2.69199 
1 -1.14174 2.11785 1.75113 
1 0.331393 1.64073 0.551651 
1 2.03684 -2.54875 2.48955 
1 -1.59534 -0.231409 3.07004 
1 2.78763 0.901087 -2.52944 
1 -2.01232 1.18563 2.12531 
1 1.63752 2.61729 -3.13306 
1 -1.07671 1.60122 -0.886829 
1 -1.28543 2.54719 -0.651047 
1 2.97223 -0.027884 1.75808 
1 1.20205 0.0368586 -0.486539 
1 -1.0191 3.04827 -2.05333 
1 -1.45112 -3.2608 2.53019 
1 2.24833 3.52006 1.60861 
1 0.509491 -1.03473 1.25944 
1 1.38849 2.62577 -2.18929 
1 1.19497 -0.239884 3.001 
1 1.05198 -1.75431 1.67885 
1 -0.60292 3.0479 0.0645795 
1 -2.90737 2.92989 -3.61364 
1 -0.692021 -0.113207 2.9569 
1 -0.153762 -1.65194 1.72513 
1 0.223055 -2.37161 2.36849 
1 1.35529 -1.33927 -1.54512 
1 2.06089 0.293549 -3.04488 
1 2.62052 -2.45349 -0.0782187 
1 0.900575 2.21816 1.3301 
1 1.78672 -2.42296 0.708144 
1 2.75586 3.55924 -1.07432 
1 -1.99852 -2.29547 -0.784974 
1 -1.6633 -3.00882 -2.70882 
1 -1.86067 -2.50307 -1.96342 
1 -2.32609 -0.679684 -1.41931 
1 1.72437 -2.77949 3.69391 
1 1.83467 1.32617 -0.473887 
1 1.11712 -0.262123 -1.49619 
1 -2.39823 -1.20088 0.639911 
1 -1.9129 1.76635 -0.217626 
1 1.67908 0.399451 0.334466 
1 0.636485 2.44401 2.48322 
1 -1.77409 -2.37715 2.19058 
1 -2.00851 0.993901 -1.05892 
1 0.799543 -0.586183 0.321534 
1 -2.2884 0.289943 -1.64472 
1 1.01946 0.897441 2.76931 
1 -2.64374 0.518632 1.28919 
1 3.15328 0.369285 0.430689 
1 1.85555 -2.33587 -1.5713 
1 -3.20242 0.838675 -1.52324 
1 1.65436 2.81475 1.16044 
1 -0.159768 -1.76077 0.797876 
1 -1.61693 -1.00435 -0.970841 
1 0.00334166 0.0753077 0.198943 
1 -2.91438 1.81588 2.52327 
1 0.468503 -1.46131 2.63652 
1 1.39536 -0.192584 1.19614 
1 3.01227 -2.05459 -1.83398 
1 -1.47035 -1.66336 -0.0343569 
1 -0.864809 -0.0397467 0.725382 
1 -0.439603 1.36615 -1.99525 
1 1.49894 -1.70295 2.6329 
1 -1.48175 3.23213 1.36348 
1 3.01045 -1.25421 -1.24082 
1 0.51926 -0.674517 -2.14887 
1 1.50693 2.41205 -0.787777 
1 -2.518 -2.93825 1.97763 
1 -0.323698 2.08103 2.39983 
1 -2.87503 -1.07713 -2.16859 
1 -1.8051 -0.00204028 -0.722491 
1 0.809917 0.220427 1.90727 
1 2.56704 -3.28554 2.99638 
1 -0.59874 -2.70162 0.877779 
1 2.43257 3.09112 0.602097 
1 -2.32466 -3.0728 0.73485 
1 3.51348 -0.19118 -0.695397 
1 0.0787663 1.44826 -1.12697 
1 -0.898625 -0.839915 1.56642 
1 -2.56611 1.00434 -2.50602 
1 0.329149 -2.61296 -0.0358547 
1 0.157991 -0.616696 -0.440067 
1 -1.67913 0.361864 1.86128 
1 -0.687152 -1.27181 2.49499 
1 -0.877748 -0.0949138 -0.292626 
1 -3.04223 0.81305 -3.34286 
1 0.190585 2.74298 0.567973 
1 -2.715 -1.65243 2.74243 
1 0.437748 0.713053 -1.73336 
1 -0.83482 -2.11671 -2.11049 
1 0.12302 0.111204 -2.59985 
1 1.7508 -0.745272 -0.0717714 
1 -1.41463 2.15552 -2.51996 
1 -0.195736 -0.186099 -1.47342 
1 -2.2109 0.041101 0.291541 
1 2.59135 0.795154 1.27209 
1 -0.442209 -1.92837 3.28006 
1 3.38273 -2.16351 -0.74345 
1 -1.34699 0.609836 -1.85743 
1 2.62072 1.78359 -2.04667 
1 -2.49976 -1.0168 -0.375125 
1 -2.76832 2.39312 0.278838 
1 0.346409 -1.18738 -1.3362 
1 0.320589 3.02147 1.68525 
1 -0.960401 1.07529 2.58407 
1 1.0943 -0.880607 2.34651 
1 -0.198061 -2.02225 -1.21726 
1 -1.09221 1.70691 0.258616 
1 -2.52391 -0.0203054 2.22422 
1 -2.24829 -1.10664 -3.04958 
1 1.0926 -1.34413 -0.595336 
1 0.28099 -1.96115 -2.43716 
1 0.00820105 -1.6121 -0.388641 
1 -3.45739 2.79046 1.89531 
1 2.48699 -1.15405 -2.08082 
1 0.731483 -2.88543 -2.20951 
1 1.87772 -1.00487 1.0807 
1 3.17096 0.755418 -0.527637 
1 -2.51245 -0.20467 3.60148 
1 3.01929 -1.09785 0.877223 
1 1.77248 2.67005 2.28958 
1 -2.37862 -1.55297 -1.24216 
1 1.20131 3.46474 1.89053 
1 -3.09955 -3.16651 -0.0987296 
1 2.07035 -3.22254 -0.364914 
