ITEM: TIMESTEP
100
ITEM: NUMBER OF ATOMS
256
ITEM: BOX BOUNDS pp pp pp
-3.1748 3.1748
-3.1748 3.1748
-3.1748 3.1748
ITEM: ATOMS type xu yu zu 
1 1.75043 -3.39055 -1.69817 
1 -0.0355886 0.600422 0.835479 
1 3.28918 -1.4938 3.27259 
1 -1.80548 0.15449 3.06814 
1 1.38379 -0.286133 -2.22382 
1 0.121574 2.74027 -2.39966 
1 -0.68064 1.59406 -2.83553 
1 3.38874 2.11356 -2.31589 
1 -2.6177 1.16351 0.610239 
1 -2.06648 1.81963 -1.49031 
1 -2.36539 -2.45907 -1.56727 
1 2.41408 1.26966 2.97894 
1 -2.81997 -2.24049 0.0131198 
1 -0.140931 -1.16417 0.0378963 
1 0.836612 -1.05139 2.96987 
1 -3.2936 -2.48578 -2.01503 
1 1.62624 1.87856 -1.34488 
1 2.5456 1.34189 0.476374 
1 -0.643421 2.50287 0.903587 
1 -1.41175 -0.619077 -0.301195 
1 2.5419 -1.78571 2.58193 
1 -1.32881 -1.27172 3.21344 
1 -0.837704 -2.89076 -0.868813 
1 1.84224 -1.3513 0.449808 
1 -0.976438 0.94729 1.34204 
1 -0.0311587 0.416741 1.83235 
1 2.77808 -2.2473 -2.8287 
1 -1.12958 -0.300602 -1.52283 
1 -0.153039 1.41745 1.89812 
1 -1.71154 0.608279 0.826601 
1 -1.73878 -0.82556 0.741153 
1 1.9618 -2.17937 -1.26196 
1 1.33212 -2.01035 -2.91182 
1 0.394415 -2.90527 0.889599 
1 -0.689277 0.574726 -1.15994 
1 -2.13209 -0.136219 -2.30778 
1 -0.96107 -0.173414 1.3966 
1 0.196928 0.511748 -0.763497 
1 -1.69936 1.14698 -2.97218 
1 -1.4327 -1.3235 -2.19493 
1 -1.20454 -1.91905 1.1015 
1 -3.09132 -0.678017 1.16646 
1 -2.0847 -0.324228 1.47085 
1 -1.59268 3.13803 -1.5318 
1 -3.10003 0.937342 2.30812 
1 -0.379196 -0.592441 2.17125 
1 0.66914 1.57502 2.43602 
1 -0.415062 0.947843 -0.0845238 
1 2.25654 0.467131 -0.109794 
1 2.53017 -0.254545 -0.811673 
1 -3.21231 -0.963846 2.15814 
1 2.82592 2.38875 -0.867519 
1 0.918272 1.11283 -1.01202 
1 -2.3785 2.34716 -0.674488 
1 -0.400271 2.46371 -1.28796 
1 1.81929 -1.10108 -2.68346 
1 -2.12413 -2.15343 0.762875 
1 2.40846 0.238026 -1.60922 
1 -1.97086 2.31242 2.20952 
1 -2.9128 1.56875 -0.391681 
1 -0.503675 -2.07389 -0.47785 
1 1.91782 -0.432256 0.740796 
1 -1.32399 -1.46719 2.16503 
1 -1.61533 2.5782 0.461827 
1 0.866838 -1.87115 0.574988 
1 -2.61254 2.81054 1.54248 
1 -3.03689 1.51653 -1.44751 
1 -2.54138 -2.41808 3.23832 
1 2.45565 1.37139 -0.841409 
1 -0.313321 -2.68129 3.23054 
1 2.80402 -0.519629 0.251112 
1 2.19133 -0.81037 2.73013 
1 -1.33789 0.475334 -0.151981 
1 0.63415 0.978566 0.131937 
1 -1.39811 -2.65736 0.343269 
1 -1.36345 -2.21568 -1.61403 
1 1.55055 0.946881 -1.79061 
1 -0.122325 0.854667 2.72687 
1 0.273317 2.7416 -0.538385 
1 0.71634 1.52042 -2.00935 
1 2.5562 1.89497 2.08294 
1 0.558547 0.0252455 2.74212 
1 2.31423 2.18449 0.086922 
1 -1.83542 1.90197 1.25492 
1 -0.797851 -2.25445 2.55506 
1 1.90295 1.61907 1.31361 
1 -0.388261 -1.14296 -0.861653 
1 -2.49577 2.72859 -1.73132 
1 -2.00631 2.05471 -2.91426 
1 0.0101187 -0.343029 1.00086 
1 1.71964 1.85206 -2.40159 
1 2.36681 -0.126733 -2.57267 
1 -0.38011 -1.12998 -2.13876 
1 1.18252 1.93036 0.487297 
1 0.275758 1.24973 -2.79682 
1 -3.12523 -2.026 2.01574 
1 1.70622 1.8132 2.65586 
1 2.04349 0.962651 2.06222 
1 -2.27027 -1.31838 1.61474 
1 0.254488 1.85086 -0.162041 
1 1.26045 -1.28967 -1.85547 
1 -1.81531 -2.19695 -0.707408 
1 -2.60349 1.65069 1.61825 
1 -0.450256 3.20849 2.28896 
1 -2.4219 -1.88064 -2.27384 
1 -3.21503 -2.47638 0.983711 
1 -0.206344 -0.925936 -3.19656 
1 0.225779 -2.56603 -2.30035 
1 2.74476 -3.30727 -2.36367 
1 -0.717316 1.92447 -0.299732 
1 0.880401 0.539787 -2.55052 
1 0.576343 2.30379 -1.52998 
1 0.152593 -3.01027 -1.43191 
1 0.729506 -3.02095 -3.04293 
1 0.85585 1.0884 1.10503 
1 -0.244288 2.77196 -3.26676 
1 1.37531 -3.37439 0.224513 
1 -1.19775 2.3324 2.79294 
1 -1.02414 -0.411757 -2.49355 
1 0.679221 -2.0996 -1.34745 
1 1.10139 3.32232 -0.911453 
1 2.99115 2.1566 1.20626 
1 1.7721 0.00529117 1.8516 
1 1.30991 -2.40823 -0.162027 
1 1.75787 0.508283 -0.935863 
1 2.32764 -0.800558 1.66373 
1 2.51158 2.63609 2.98145 
1 -0.870683 0.574848 -2.69969 
1 -1.59693 -2.21865 -3.16991 
1 -3.06834 0.202887 -2.11275 
1 2.40306 0.269442 2.7976 
1 1.9634 -2.02945 1.41713 
1 0.713314 2.13792 -3.01577 
1 -1.12056 2.5301 1.80468 
1 -0.00346593 1.66624 0.845484 
1 1.66557 -2.62212 2.14479 
1 -1.45008 -0.525601 2.42985 
1 2.89419 1.25125 -2.31336 
1 -2.09387 1.31335 2.416 
1 1.67417 2.77925 -3.03722 
1 -1.27895 1.32431 -0.909658 
1 -1.37363 2.37853 -1.00456 
1 2.79167 0.138642 1.85409 
1 1.04458 0.24316 -0.381246 
1 -0.616639 3.35157 -2.13981 
1 -1.45588 -3.04935 2.50048 
1 2.73437 3.13043 1.74766 
1 0.254814 -1.20586 1.06894 
1 1.00911 2.79351 -2.24064 
1 1.4569 -0.120079 3.07396 
1 0.90388 -2.37183 1.53822 
1 -0.744476 3.01209 0.0630021 
1 -2.79624 2.90443 -2.87205 
1 -0.894658 0.21445 2.71601 
1 -0.0639477 -2.31218 1.60043 
1 0.515075 -2.81537 2.3867 
1 1.56436 -0.370676 -1.25102 
1 1.93097 0.727382 -2.5837 
1 2.24211 -2.13548 -0.267068 
1 0.99674 1.95471 1.63034 
1 1.93663 -2.59312 0.61062 
1 2.83711 3.16139 -1.42845 
1 -1.76033 -3.13373 -0.46534 
1 -1.29116 -3.3107 -2.81562 
1 -2.07462 -3.05731 -2.36325 
1 -1.986 -0.65442 -1.41284 
1 2.00731 -2.67485 3.15155 
1 1.60381 1.41667 -0.231795 
1 0.79139 0.140319 -1.38822 
1 -2.58597 -1.30599 0.401526 
1 -1.91452 1.72063 0.004808 
1 1.68426 0.821205 0.747346 
1 1.02737 2.56614 2.50595 
1 -1.91506 -2.32558 1.69981 
1 -2.26036 0.772341 -0.271488 
1 0.9616 -0.911114 0.357536 
1 -2.25648 0.587238 -1.44737 
1 1.34994 0.866672 2.94674 
1 -2.54879 0.485138 1.31401 
1 2.60555 0.332106 0.900152 
1 1.97015 -2.1906 -2.25427 
1 -3.24255 0.703089 -0.951568 
1 2.02645 2.61514 1.28475 
1 -0.484109 -1.97573 0.488911 
1 -1.20601 -1.42483 -1.14879 
1 0.347256 -0.0937957 0.146359 
1 -2.8554 1.60002 3.08528 
1 0.414383 -1.39574 2.08108 
1 0.849322 -0.0703439 1.31473 
1 2.87081 -1.62937 -1.70966 
1 -1.32449 -1.62319 0.0101064 
1 -0.745138 -0.0576603 0.416001 
1 -0.70161 1.3673 -1.83679 
1 1.56146 -1.60372 2.3179 
1 -1.58807 3.11612 1.30157 
1 2.88075 -1.35792 -0.332976 
1 0.37952 -0.51076 -2.45075 
1 1.16583 2.3225 -0.497194 
1 -2.45721 -2.82271 2.41372 
1 -0.169174 1.94894 2.80348 
1 -2.97536 -0.756219 -2.25197 
1 -2.23421 -0.130299 -0.651199 
1 0.951561 0.622372 2.06515 
1 2.93173 -2.79076 2.68483 
1 -0.650819 -2.93081 0.957636 
1 2.77893 3.08241 0.443245 
1 -2.30433 -3.10633 0.351806 
1 3.39042 -0.342637 -1.31498 
1 -0.11781 1.43087 -0.979733 
1 -0.779269 -1.05369 0.790707 
1 -2.26977 1.18033 -2.22137 
1 0.212193 -2.73599 -0.0902509 
1 0.576627 -0.676358 -0.795132 
1 -1.67979 0.618668 1.91149 
1 -0.494614 -1.45497 1.78352 
1 -0.360938 -0.199894 -0.542957 
1 -2.75013 0.601513 -3.09035 
1 0.471729 2.56068 0.452663 
1 -2.33108 -1.60272 2.53996 
1 0.0747793 0.763758 -1.89958 
1 -0.904176 -2.13324 -2.49883 
1 -0.0619665 0.143523 -2.83717 
1 1.70897 -0.397929 -0.272136 
1 -1.1745 2.14465 -2.22434 
1 -0.00556341 -0.118917 -1.64718 
1 -2.41493 -0.174357 0.595003 
1 2.91812 1.05895 1.47758 
1 0.163922 -1.90394 2.97527 
1 3.00931 -2.26467 -0.935168 
1 -1.41638 0.672898 -1.85176 
1 2.51034 2.18268 -1.86346 
1 -2.11592 -1.19646 -0.668954 
1 -2.72992 2.31936 0.451982 
1 0.381183 -1.21794 -1.51651 
1 0.125345 2.50955 1.87182 
1 -1.13654 1.30867 2.46205 
1 1.06089 -0.56214 2.12426 
1 -0.274727 -2.11033 -1.53368 
1 -0.928482 1.60727 0.596679 
1 -2.4695 0.043032 2.36737 
1 -2.18204 -0.927668 -3.01828 
1 1.61882 -1.2869 -0.823779 
1 0.472725 -1.4996 -2.50266 
1 0.806992 -1.60539 -0.432157 
1 -2.92207 2.36259 2.46045 
1 2.50164 -0.794078 -1.68829 
1 1.11739 -2.55199 -2.04733 
1 1.25965 -1.12282 1.28346 
1 3.30605 0.214459 -0.0752065 
1 -3.09817 -0.448526 3.13711 
1 2.77982 -1.54817 0.817415 
1 1.90498 2.85266 2.22648 
1 -2.57318 -1.44026 -1.38162 
1 1.03711 2.97013 1.45015 
1 -2.82231 -3.13098 -0.608084 
1 2.08296 -3.05947 -0.630982 
