20674
step:1 columns:species,pos,grainID dt:1 cell:70.0,70.0,70.0 
1 -31.448454 -25.093278 -11.339178 1.0
1 -29.633101 -24.266999 -13.394724 1.0
1 -26.887766 -20.604530 -11.484327 1.0
1 -25.998389 -22.354334 -9.404187 1.0
1 -27.808711 -23.310238 -11.399513 1.0
1 -28.700127 -21.560013 -13.480903 1.0
1 -26.891319 -20.736421 -15.522221 1.0
1 -25.995733 -22.480621 -13.444805 1.0
1 -27.809561 -23.440933 -15.441258 1.0
1 -25.995637 -22.611368 -17.492969 1.0
1 -22.365805 -20.568097 -9.456488 1.0
1 -24.186075 -21.527625 -11.455635 1.0
1 -25.074455 -19.774114 -13.536106 1.0
1 -22.370058 -20.700230 -13.506664 1.0
1 -24.185345 -21.654600 -15.498613 1.0
1 -25.070203 -19.907390 -17.581538 1.0
1 -22.368279 -20.836640 -17.546409 1.0
1 -24.178117 -21.789979 -19.542879 1.0
1 -20.549859 -19.745478 -11.506816 1.0
1 -32.369356 -27.801752 -11.253090 1.0
1 -33.291654 -30.508803 -11.166952 1.0
1 -31.476150 -29.677807 -13.220838 1.0
1 -28.735948 -26.013342 -11.313833 1.0
1 -27.846521 -27.767004 -9.230654 1.0
1 -29.657831 -28.719286 -11.220303 1.0
1 -30.555452 -26.975473 -13.299826 1.0
1 -28.733558 -26.148033 -15.358061 1.0
1 -27.847505 -27.894895 -13.271331 1.0
1 -29.657093 -28.852110 -15.265507 1.0
1 -27.838466 -28.026613 -17.318233 1.0
1 -26.924475 -25.059646 -9.312978 1.0
1 -25.104711 -24.232181 -11.364541 1.0
1 -24.210463 -25.984343 -9.283643 1.0
1 -26.032783 -26.944061 -11.275120 1.0
1 -26.918434 -25.195452 -13.361812 1.0
1 -25.107573 -24.365168 -15.412133 1.0
1 -24.208357 -26.110437 -13.331437 1.0
1 -26.030117 -27.066887 -15.319401 1.0
1 -26.914469 -25.316491 -17.399906 1.0
1 -25.104611 -24.491527 -19.450687 1.0
1 -24.214627 -26.245636 -17.372011 1.0
1 -26.028885 -27.203544 -19.363907 1.0
1 -24.206033 -26.370032 -21.421359 1.0
1 -23.287761 -23.278365 -9.375556 1.0
1 -21.478658 -22.450245 -11.422747 1.0
1 -20.578451 -24.196843 -9.337046 1.0
1 -22.395706 -25.161317 -11.334586 1.0
1 -23.288304 -23.405489 -13.415590 1.0
1 -21.470619 -22.583448 -15.467283 1.0
1 -20.586409 -24.335137 -13.388623 1.0
1 -22.391751 -25.289557 -15.374809 1.0
1 -23.283478 -23.541740 -17.460984 1.0
1 -21.468471 -22.708835 -19.508055 1.0
1 -20.579293 -24.461960 -17.428071 1.0
1 -22.395145 -25.416324 -19.423165 1.0
1 -23.288426 -23.671081 -21.500956 1.0
1 -21.471679 -22.842893 -23.553405 1.0
1 -20.578520 -24.592513 -21.470763 1.0
1 -22.396574 -25.546628 -23.469744 1.0
1 -20.577377 -24.719890 -25.513225 1.0
1 -18.766497 -23.245921 -7.351407 1.0
1 -19.657062 -21.498708 -9.429304 1.0
1 -16.946804 -22.414386 -9.396524 1.0
1 -18.769236 -23.379399 -11.388194 1.0
1 -19.656696 -21.628546 -13.476291 1.0
1 -16.950379 -22.547271 -13.436456 1.0
1 -18.764610 -23.505449 -15.439257 1.0
1 -19.661131 -21.753539 -17.518583 1.0
1 -18.762741 -23.634017 -19.477205 1.0
1 -34.211726 -33.215191 -11.079339 1.0
1 -33.324063 34.906271 -13.039067 1.0
1 -30.585768 -31.434026 -11.136424 1.0
1 -29.689651 -33.182618 -9.050705 1.0
1 -31.509980 -34.137435 -11.049234 1.0
1 -32.403304 -32.384621 -13.129026 1.0
1 -30.581684 -31.561949 -15.179717 1.0
1 -29.686935 -33.313450 -13.100737 1.0
1 -31.502119 -34.267064 -15.090876 1.0
1 -29.692642 -33.442670 -17.146381 1.0
1 -28.765072 -30.474247 -9.139928 1.0
1 -26.954605 -29.648888 -11.193336 1.0
1 -26.061640 -31.400110 -9.111215 1.0
1 -27.873798 -32.356829 -11.109550 1.0
1 -28.770567 -30.604251 -13.190717 1.0
1 -26.955790 -29.774026 -15.236222 1.0
1 -26.064732 -31.530474 -13.151714 1.0
1 -27.878578 -32.488256 -15.145663 1.0
1 -28.765922 -30.733626 -17.225714 1.0
1 -26.954983 -29.907968 -19.276506 1.0
1 -26.055414 -31.661122 -17.201488 1.0
1 -27.872425 -32.612116 -19.191841 1.0
1 -26.052903 -31.784128 -21.243961 1.0
1 -25.140912 -28.694627 -9.194057 1.0
1 -23.321397 -27.863004 -11.248976 1.0
1 -22.432010 -29.617564 -9.167912 1.0
1 -24.240764 -30.567231 -11.159691 1.0
1 -25.133516 -28.820040 -13.243326 1.0
1 -23.321692 -27.993869 -15.292030 1.0
1 -22.432033 -29.741182 -13.214045 1.0
1 -24.247013 -30.700537 -15.208182 1.0
1 -25.138190 -28.953417 -17.287576 1.0
1 -23.322976 -28.119368 -19.338517 1.0
1 -22.427706 -29.875084 -17.256023 1.0
1 -24.241435 -30.833100 -19.246032 1.0
1 -25.137019 -29.077684 -21.325063 1.0
1 -23.320877 -28.249458 -23.375201 1.0
1 -22.424622 -30.005246 -21.298748 1.0
1 -24.243120 -30.963479 -23.291894 1.0
1 -22.428643 -30.133705 -25.338814 1.0
1 -19.686763 -25.950414 -7.261456 1.0
1 -20.612920 -28.661080 -7.176778 1.0
1 -21.504665 -26.902489 -9.255876 1.0
1 -19.687347 -26.078827 -11.306145 1.0
1 -18.796666 -27.827344 -9.227230 1.0
1 -20.616854 -28.784053 -11.216907 1.0
1 -21.500357 -27.034646 -13.301681 1.0
1 -19.690856 -26.207629 -15.345451 1.0
1 -18.796678 -27.959504 -13.262749 1.0
1 -20.610762 -28.916215 -15.262092 1.0
1 -21.508889 -27.168537 -17.344632 1.0
1 -19.689663 -26.340715 -19.389620 1.0
1 -18.793463 -28.090941 -17.316541 1.0
1 -20.607231 -29.044503 -19.302190 1.0
1 -21.501998 -27.301547 -21.389252 1.0
1 -19.681874 -26.474883 -23.436633 1.0
1 -18.797335 -28.223218 -21.354044 1.0
1 -20.611262 -29.179074 -23.353908 1.0
1 -21.497371 -27.426799 -25.432141 1.0
1 -19.688338 -26.604585 -27.476144 1.0
1 -18.795854 -28.352193 -25.403492 1.0
1 -20.608939 -29.307932 -27.392125 1.0
1 -18.787919 -28.482767 -29.446316 1.0
1 -16.064797 -24.168675 -7.319602 1.0
1 -16.980136 -26.876029 -7.229429 1.0
1 -17.877598 -25.125622 -9.306436 1.0
1 -16.061378 -24.294101 -11.364494 1.0
1 -15.168182 -26.050904 -9.278158 1.0
1 -16.978388 -27.007206 -11.271834 1.0
1 -17.875945 -25.249384 -13.355908 1.0
1 -16.054285 -24.427809 -15.403272 1.0
1 -15.167170 -26.173892 -13.324643 1.0
1 -16.982881 -27.129073 -15.320980 1.0
1 -17.867974 -25.380339 -17.393382 1.0
1 -15.161324 -26.311858 -17.363735 1.0
1 -16.982424 -27.262780 -19.358283 1.0
1 -17.872607 -25.512144 -21.439462 1.0
1 -15.162827 -26.438500 -21.407122 1.0
1 -16.978361 -27.390886 -23.403302 1.0
1 -17.874656 -25.641208 -25.481796 1.0
1 -16.976953 -27.528856 -27.451355 1.0
1 -13.357022 -25.092562 -7.285375 1.0
1 -14.248605 -23.342754 -9.364854 1.0
1 -13.347481 -25.218646 -11.327408 1.0
1 -13.350003 -25.345845 -15.378819 1.0
1 34.829126 29.495823 -12.865626 1.0
1 -32.433996 33.151965 -10.966749 1.0
1 -33.353023 30.453874 -10.877281 1.0
1 -34.243458 32.199501 -12.959020 1.0
1 -32.434643 33.021803 -15.006026 1.0
1 -31.541286 31.277647 -12.922553 1.0
1 -33.356257 30.322245 -14.919258 1.0
1 -31.533843 31.146561 -16.969537 1.0
1 -28.799307 34.942649 -11.015616 1.0
1 -27.911993 33.192380 -8.941794 1.0
1 -29.720458 32.233979 -10.928986 1.0
1 -30.616807 33.979556 -13.015047 1.0
1 -28.802026 34.806391 -15.063135 1.0
1 -27.907121 33.061706 -12.979131 1.0
1 -29.721409 32.101095 -14.972656 1.0
1 -30.613786 33.848730 -17.054984 1.0
1 -28.798429 34.678398 -19.109325 1.0
1 -27.904925 32.932795 -17.024479 1.0
1 -29.721232 31.969740 -19.021112 1.0
1 -27.902721 32.802579 -21.073167 1.0
1 -26.983733 -34.107434 -9.022486 1.0
1 -25.172582 -33.277912 -11.076491 1.0
1 -24.280740 34.969556 -8.989498 1.0
1 -26.094593 34.019570 -10.984344 1.0
1 -26.980135 -34.231738 -13.065991 1.0
1 -25.168043 -33.405796 -15.120451 1.0
1 -24.278981 34.842813 -13.040150 1.0
1 -26.087202 33.884833 -15.027332 1.0
1 -26.987237 -34.360211 -17.113154 1.0
1 -25.161620 -33.540287 -19.164924 1.0
1 -24.276326 34.714549 -17.077744 1.0
1 -26.094005 33.756747 -19.074721 1.0
1 -26.983877 -34.494853 -21.155117 1.0
1 -25.165628 -33.665823 -23.208739 1.0
1 -24.275687 34.580302 -21.123643 1.0
1 -26.083641 33.626255 -23.119915 1.0
1 -24.267793 34.455483 -25.174241 1.0
1 -21.540258 -31.368000 -7.088830 1.0
1 -22.459763 -34.066001 -7.003396 1.0
1 -23.351723 -32.316214 -9.080516 1.0
1 -21.538290 -31.490750 -11.127576 1.0
1 -20.648037 -33.240754 -9.054963 1.0
1 -22.459782 -34.195588 -11.040487 1.0
1 -23.350699 -32.454879 -13.122228 1.0
1 -21.535997 -31.623390 -15.177085 1.0
1 -20.640553 -33.372895 -13.089785 1.0
1 -22.462785 -34.325943 -15.085910 1.0
1 -23.353867 -32.583628 -17.164372 1.0
1 -21.531654 -31.748891 -19.220466 1.0
1 -20.640252 -33.498783 -17.136404 1.0
1 -22.460329 -34.464625 -19.131171 1.0
1 -23.347131 -32.709522 -21.213917 1.0
1 -21.535464 -31.882455 -23.265492 1.0
1 -20.645945 -33.634195 -21.181696 1.0
1 -22.456224 -34.590836 -23.171864 1.0
1 -23.352214 -32.841588 -25.259475 1.0
1 -21.527815 -32.018023 -27.305819 1.0
1 -20.644044 -33.760347 -25.226795 1.0
1 -22.459273 -34.723387 -27.217661 1.0
1 -20.637983 -33.894486 -29.266626 1.0
1 -17.903186 -29.583938 -7.142153 1.0
1 -17.012316 -31.328876 -5.066981 1.0
1 -18.830287 -32.287143 -7.058955 1.0
1 -19.719325 -30.539837 -9.134776 1.0
1 -17.901410 -29.712866 -11.184208 1.0
1 -17.012860 -31.461134 -9.104461 1.0
1 -18.831220 -32.411865 -11.096801 1.0
1 -19.720776 -30.671891 -13.179505 1.0
1 -17.904114 -29.835447 -15.234375 1.0
1 -17.017783 -31.591415 -13.150842 1.0
1 -18.831843 -32.541835 -15.147413 1.0
1 -19.715301 -30.794063 -17.227804 1.0
1 -17.902471 -29.975202 -19.275217 1.0
1 -17.007631 -31.719780 -17.194715 1.0
1 -18.822344 -32.672124 -19.190338 1.0
1 -19.715540 -30.924266 -21.264269 1.0
1 -17.905279 -30.099677 -23.321221 1.0
1 -17.015540 -31.847656 -21.238080 1.0
1 -18.827699 -32.806140 -23.229245 1.0
1 -19.722104 -31.057247 -25.308406 1.0
1 -17.902355 -30.235522 -27.366074 1.0
1 -17.005286 -31.975834 -25.278428 1.0
1 -18.829397 -32.933098 -27.280324 1.0
1 -19.711455 -31.186834 -29.358558 1.0
1 -17.902156 -30.363738 -31.410249 1.0
1 -17.006034 -32.107000 -29.324020 1.0
1 -18.822876 -33.072100 -31.323478 1.0
1 -17.007253 -32.242810 -33.368122 1.0
1 -16.092122 -28.626377 -5.153334 1.0
1 -14.273649 -27.792910 -7.195832 1.0
1 -13.387319 -29.549153 -5.123082 1.0
1 -15.196016 -30.503929 -7.109292 1.0
1 -16.086858 -28.751430 -9.189413 1.0
1 -14.279551 -27.925338 -11.246392 1.0
1 -13.381116 -29.676285 -9.164390 1.0
1 -15.199709 -30.633939 -11.158497 1.0
1 -16.094444 -28.885554 -13.238829 1.0
1 -14.275155 -28.056120 -15.290356 1.0
1 -13.378127 -29.811032 -13.204337 1.0
1 -15.194826 -30.763150 -15.199911 1.0
1 -16.088445 -29.011681 -17.280421 1.0
1 -14.272471 -28.184710 -19.335103 1.0
1 -13.381093 -29.934258 -17.252379 1.0
1 -15.198201 -30.888760 -19.249194 1.0
1 -16.091183 -29.147787 -21.321555 1.0
1 -14.270709 -28.317770 -23.372718 1.0
1 -13.380806 -30.065471 -21.294484 1.0
1 -15.192864 -31.022302 -23.283622 1.0
1 -16.081013 -29.276343 -25.373684 1.0
1 -14.266441 -28.447846 -27.422712 1.0
1 -13.375848 -30.201301 -25.342653 1.0
1 -15.192646 -31.152557 -27.330124 1.0
1 -16.084812 -29.408287 -29.414744 1.0
1 -13.375812 -30.326378 -29.379411 1.0
1 -15.190353 -31.286472 -31.378497 1.0
1 -16.079541 -29.531152 -33.457355 1.0
1 -15.191749 -31.414564 34.575305 1.0
1 -10.647529 -26.011330 -7.258513 1.0
1 -11.573051 -28.718208 -7.172907 1.0
1 -12.462123 -26.974199 -9.253280 1.0
1 -10.648056 -26.148233 -11.303916 1.0
1 -9.748821 -27.893031 -9.221208 1.0
1 -11.568087 -28.848596 -11.210520 1.0
1 -12.462837 -27.102273 -13.290605 1.0
1 -9.754525 -28.023449 -13.258328 1.0
1 -11.561066 -28.984866 -15.255677 1.0
1 -12.459935 -27.231121 -17.337060 1.0
1 -11.569146 -29.112922 -19.297373 1.0
1 -11.561939 -29.243833 -23.344053 1.0
1 32.985658 24.080181 -12.699418 1.0
1 -34.274045 27.741917 -10.792086 1.0
1 34.798970 25.040732 -10.705866 1.0
1 33.909791 26.791591 -12.782776 1.0
1 -34.274393 27.615855 -14.828413 1.0
1 -33.385507 25.860043 -12.749571 1.0
1 34.803178 24.906003 -14.744212 1.0
1 -33.388217 25.732819 -16.795528 1.0
1 -30.649593 29.531594 -10.841875 1.0
1 -29.752257 27.775310 -8.768167 1.0
1 -31.566954 26.818579 -10.753812 1.0
1 -32.467152 28.574719 -12.839376 1.0
1 -30.650104 29.398783 -14.890480 1.0
1 -29.755961 27.643293 -12.811210 1.0
1 -31.567741 26.690879 -14.804835 1.0
1 -32.463666 28.436229 -16.886288 1.0
1 -30.646079 29.265528 -18.930535 1.0
1 -29.754338 27.517110 -16.847581 1.0
1 -31.566565 26.560645 -18.846295 1.0
1 -29.750632 27.386236 -20.891040 1.0
1 -28.834212 30.484600 -8.852975 1.0
1 -27.013284 31.307368 -10.905735 1.0
1 -26.129586 29.557632 -8.815695 1.0
1 -27.937552 28.600739 -10.812787 1.0
1 -28.833764 30.352025 -12.897659 1.0
1 -27.014741 31.182220 -14.945565 1.0
1 -26.127092 29.431549 -12.860445 1.0
1 -27.940258 28.476874 -14.860333 1.0
1 -28.826490 30.218659 -16.939901 1.0
1 -27.016099 31.047220 -18.987489 1.0
1 -26.120681 29.301111 -16.909795 1.0
1 -27.937374 28.340654 -18.905280 1.0
1 -28.824277 30.088590 -20.987136 1.0
1 -27.014025 30.920769 -23.032892 1.0
1 -26.118616 29.166629 -20.953816 1.0
1 -27.931598 28.217067 -22.942853 1.0
1 -26.122279 29.045203 -24.994842 1.0
1 -23.384362 33.222939 -6.913079 1.0
1 -24.311660 30.520202 -6.829596 1.0
1 -25.197031 32.270472 -8.909730 1.0
1 -23.381930 33.097621 -10.956952 1.0
1 -22.488237 31.346779 -8.880741 1.0
1 -24.304238 30.386466 -10.868421 1.0
1 -25.202648 32.137472 -12.949401 1.0
1 -23.384345 32.964106 -14.996749 1.0
1 -22.489983 31.211226 -12.918148 1.0
1 -24.302958 30.253961 -14.915416 1.0
1 -25.195438 32.011652 -16.990374 1.0
1 -23.380524 32.831382 -19.041835 1.0
1 -22.489977 31.086607 -16.964793 1.0
1 -24.305561 30.122199 -18.956978 1.0
1 -25.199443 31.881675 -21.037920 1.0
1 -23.378719 32.702082 -23.084260 1.0
1 -22.493554 30.951341 -21.009652 1.0
1 -24.303865 29.999067 -22.998591 1.0
1 -25.192637 31.742249 -25.082894 1.0
1 -23.381916 32.568471 -27.132051 1.0
1 -22.488674 30.823342 -25.054366 1.0
1 -24.304551 29.864804 -27.043203 1.0
1 -22.485096 30.696225 -29.099486 1.0
1 -19.751924 -34.996043 -6.972440 1.0
1 -20.675627 32.300749 -6.883671 1.0
1 -21.570738 34.051963 -8.963619 1.0
1 -19.753689 34.873557 -11.011543 1.0
1 -18.864816 33.126128 -8.929902 1.0
1 -20.672342 32.165786 -10.931550 1.0
1 -21.567974 33.918525 -13.012043 1.0
1 -19.747809 34.743752 -15.061769 1.0
1 -18.856285 32.999463 -12.980844 1.0
1 -20.674812 32.035860 -14.966106 1.0
1 -21.567633 33.785593 -17.049155 1.0
1 -19.751008 34.617778 -19.101991 1.0
1 -18.855378 32.867103 -17.022459 1.0
1 -20.669697 31.906678 -19.015463 1.0
1 -21.565478 33.655481 -21.097929 1.0
1 -19.744621 34.484328 -23.141142 1.0
1 -18.855433 32.740570 -21.068829 1.0
1 -20.672066 31.780453 -23.055434 1.0
1 -21.567055 33.529347 -25.134414 1.0
1 -19.747208 34.352479 -27.192337 1.0
1 -18.858578 32.602619 -25.111887 1.0
1 -20.676548 31.650394 -27.103486 1.0
1 -21.563067 33.398966 -29.179549 1.0
1 -19.744481 34.224700 -31.233120 1.0
1 -18.857570 32.480404 -29.154703 1.0
1 -20.671536 31.516514 -31.147972 1.0
1 -18.855585 32.344147 -33.197372 1.0
1 -16.128085 -33.214742 -7.023574 1.0
1 -15.235032 -34.958708 -4.946159 1.0
1 -17.044693 34.086054 -6.935293 1.0
1 -17.940523 -34.162726 -9.023672 1.0
1 -16.122855 -33.341892 -11.073462 1.0
1 -15.232666 34.905858 -8.987760 1.0
1 -17.048864 33.958154 -10.983616 1.0
1 -17.940264 -34.299058 -13.061311 1.0
1 -16.115781 -33.468964 -15.115324 1.0
1 -15.225715 34.776821 -13.037238 1.0
1 -17.041045 33.821748 -15.031087 1.0
1 -17.937273 -34.428810 -17.104589 1.0
1 -16.120925 -33.602278 -19.157282 1.0
1 -15.226668 34.651338 -17.073306 1.0
1 -17.041856 33.693382 -19.075124 1.0
1 -17.937703 -34.557211 -21.151418 1.0
1 -16.117011 -33.733898 -23.201126 1.0
1 -15.227423 34.515310 -21.115995 1.0
1 -17.046219 33.561790 -23.112678 1.0
1 -17.933216 -34.683480 -25.196205 1.0
1 -16.117854 -33.856196 -27.246505 1.0
1 -15.222677 34.387695 -25.161990 1.0
1 -17.041432 33.433290 -27.156617 1.0
1 -17.927190 -34.820048 -29.242403 1.0
1 -16.116540 -33.986845 -31.286719 1.0
1 -15.223534 34.259601 -29.204066 1.0
1 -17.035240 33.306562 -31.204098 1.0
1 -17.928580 -34.945365 -33.282964 1.0
1 -16.115927 -34.117065 34.668526 1.0
1 -15.223716 34.129845 -33.250070 1.0
1 -17.034939 33.174045 34.749701 1.0
1 -15.219368 34.000123 32.707973 1.0
1 -14.307583 -32.257847 -5.029909 1.0
1 -12.490210 -31.430818 -7.078278 1.0
1 -11.595789 -33.172151 -4.999369 1.0
1 -13.417690 -34.134828 -6.997445 1.0
1 -14.305926 -32.382626 -9.080628 1.0
1 -12.485677 -31.551674 -11.125081 1.0
1 -11.594814 -33.308271 -9.050259 1.0
1 -13.418728 -34.265659 -11.035066 1.0
1 -14.306615 -32.516679 -13.118971 1.0
1 -12.489220 -31.685238 -15.170459 1.0
1 -11.598046 -33.438747 -13.092477 1.0
1 -13.414104 -34.388440 -15.082646 1.0
1 -14.303271 -32.646944 -17.165053 1.0
1 -12.490154 -31.816554 -19.213460 1.0
1 -11.593574 -33.563445 -17.132859 1.0
1 -13.412037 -34.526439 -19.128753 1.0
1 -14.301895 -32.774948 -21.211968 1.0
1 -12.488343 -31.949822 -23.254135 1.0
1 -11.595897 -33.700820 -21.179039 1.0
1 -13.406884 -34.656772 -23.167263 1.0
1 -14.302452 -32.908267 -25.251789 1.0
1 -12.487400 -32.081376 -27.298349 1.0
1 -11.594650 -33.821705 -25.221290 1.0
1 -13.413918 -34.779342 -27.219806 1.0
1 -14.297739 -33.038308 -29.297785 1.0
1 -12.481387 -32.210849 -31.347671 1.0
1 -11.594443 -33.955791 -29.264315 1.0
1 -13.406419 -34.910304 -31.262725 1.0
1 -14.302177 -33.167638 -33.343755 1.0
1 -12.483289 -32.338734 34.607359 1.0
1 -11.596204 -34.086304 -33.306451 1.0
1 -13.405643 34.960586 34.700003 1.0
1 -14.294719 -33.297205 32.618767 1.0
1 -11.594307 -34.221322 32.644561 1.0
1 -13.402486 34.827105 30.648842 1.0
1 -10.680726 -30.468311 -5.090243 1.0
1 -8.861447 -29.647661 -7.142000 1.0
1 -9.787980 -32.347090 -7.047175 1.0
1 -10.677801 -30.604082 -9.135250 1.0
1 -8.856284 -29.771045 -11.183741 1.0
1 -7.971195 -31.520651 -9.100858 1.0
1 -9.786863 -32.478716 -11.097583 1.0
1 -10.679112 -30.728616 -13.174617 1.0
1 -8.859201 -29.902880 -15.228146 1.0
1 -7.962578 -31.652542 -13.143520 1.0
1 -9.785300 -32.613851 -15.134607 1.0
1 -10.676097 -30.863609 -17.223919 1.0
1 -8.851828 -30.037647 -19.268043 1.0
1 -7.962084 -31.780907 -17.184868 1.0
1 -9.776822 -32.744515 -19.181311 1.0
1 -10.674899 -30.985443 -21.260462 1.0
1 -7.962065 -31.914364 -21.231658 1.0
1 -9.782132 -32.872707 -23.225765 1.0
1 -10.674638 -31.122282 -25.308404 1.0
1 -7.963498 -32.047230 -25.279267 1.0
1 -9.779586 -32.995203 -27.273288 1.0
1 -9.778601 -33.129177 -31.313819 1.0
1 -6.152807 -30.565737 -7.111512 1.0
1 -7.048040 -28.811982 -9.186985 1.0
1 -4.333209 -29.742461 -9.157078 1.0
1 -6.155991 -30.693798 -11.154948 1.0
1 -7.037798 -28.946902 -13.228532 1.0
1 -6.149667 -30.823407 -15.194067 1.0
1 31.133540 18.665081 -12.522040 1.0
1 33.871747 22.334486 -10.614414 1.0
1 32.062252 21.372634 -12.612596 1.0
1 33.879100 22.204898 -14.654106 1.0
1 34.766562 20.450719 -12.575069 1.0
1 32.949287 19.490008 -14.572302 1.0
1 34.766496 20.319160 -16.624401 1.0
1 -32.495491 24.114766 -10.671537 1.0
1 -31.601832 22.361888 -8.589968 1.0
1 -33.413897 21.405960 -10.584425 1.0
1 -34.312513 23.156955 -12.667534 1.0
1 -32.495733 23.983976 -14.711552 1.0
1 -31.597278 22.231022 -12.638178 1.0
1 -33.415727 21.281941 -14.633466 1.0
1 -34.304641 23.032202 -16.710289 1.0
1 -32.495875 23.853914 -18.757129 1.0
1 -31.596060 22.102977 -16.673733 1.0
1 -33.416528 21.149365 -18.670199 1.0
1 -31.596367 21.976931 -20.722226 1.0
1 -30.680910 25.073408 -8.681681 1.0
1 -28.860670 25.892976 -10.725677 1.0
1 -27.968045 24.147557 -8.648080 1.0
1 -29.787536 23.189259 -10.644651 1.0
1 -30.677105 24.938594 -12.720937 1.0
1 -28.857564 25.766090 -14.770057 1.0
1 -27.969558 24.016718 -12.695243 1.0
1 -29.788419 23.064092 -14.681311 1.0
1 -30.678521 24.812421 -16.766107 1.0
1 -28.864639 25.641164 -18.816528 1.0
1 -27.972519 23.883646 -16.736114 1.0
1 -29.786112 22.929678 -18.731842 1.0
1 -30.676303 24.682990 -20.805603 1.0
1 -28.855999 25.507391 -22.860558 1.0
1 -27.966643 23.757584 -20.774068 1.0
1 -29.778576 22.800692 -22.771426 1.0
1 -27.966647 23.628201 -24.824420 1.0
1 -25.234187 27.813472 -6.738618 1.0
1 -26.156359 25.106713 -6.650535 1.0
1 -27.047265 26.857416 -8.733139 1.0
1 -25.229716 27.684448 -10.787566 1.0
1 -24.344191 25.932844 -8.706878 1.0
1 -26.157290 24.971814 -10.701361 1.0
1 -27.048286 26.729027 -12.776285 1.0
1 -25.234721 27.552443 -14.832324 1.0
1 -24.339711 25.798456 -12.742190 1.0
1 -26.152464 24.841220 -14.740543 1.0
1 -27.044082 26.590144 -16.822080 1.0
1 -25.231564 27.418210 -18.870993 1.0
1 -24.340554 25.670350 -16.786948 1.0
1 -26.150181 24.718321 -18.786614 1.0
1 -27.042041 26.463444 -20.862872 1.0
1 -25.229733 27.286022 -22.917709 1.0
1 -24.332261 25.539123 -20.838334 1.0
1 -26.152769 24.581393 -22.824797 1.0
1 -27.041098 26.329559 -24.913037 1.0
1 -25.230144 27.159713 -26.958950 1.0
1 -24.333227 25.407061 -24.881921 1.0
1 -26.152443 24.456395 -26.875577 1.0
1 -24.337489 25.280493 -28.926444 1.0
1 -21.604950 29.598243 -6.795793 1.0
1 -22.525772 26.888694 -6.713042 1.0
1 -23.413361 28.639764 -8.791170 1.0
1 -21.598936 29.466616 -10.835994 1.0
1 -20.706084 27.712658 -8.761189 1.0
1 -22.526009 26.757851 -10.748908 1.0
1 -23.417468 28.510178 -12.830163 1.0
1 -21.598851 29.333448 -14.879081 1.0
1 -20.712560 27.580016 -12.805257 1.0
1 -22.521024 26.622848 -14.798267 1.0
1 -23.415320 28.379359 -16.878215 1.0
1 -21.598818 29.207067 -18.930105 1.0
1 -20.701659 27.453011 -16.850252 1.0
1 -22.518440 26.496175 -18.842801 1.0
1 -23.411836 28.244013 -20.923457 1.0
1 -21.593121 29.078716 -22.974803 1.0
1 -20.706193 27.326499 -20.888740 1.0
1 -22.520545 26.371233 -22.882902 1.0
1 -23.414116 28.122149 -24.967112 1.0
1 -21.597082 28.946020 -27.016248 1.0
1 -20.705123 27.191644 -24.935944 1.0
1 -22.518153 26.234164 -26.932073 1.0
1 -23.405591 27.990870 -29.005230 1.0
1 -21.593099 28.815781 -31.062449 1.0
1 -20.704064 27.061627 -28.974260 1.0
1 -22.514501 26.105120 -30.968033 1.0
1 -20.705249 26.937304 -33.020928 1.0
1 -17.973576 31.380412 -6.850996 1.0
1 -17.075443 29.631307 -4.775523 1.0
1 -18.891533 28.666767 -6.768409 1.0
1 -19.787372 30.424062 -8.841779 1.0
1 -17.964472 31.247051 -10.895409 1.0
1 -17.078786 29.500631 -8.816095 1.0
1 -18.889134 28.544563 -10.810923 1.0
1 -19.779307 30.291197 -12.894917 1.0
1 -17.972722 31.113997 -14.936953 1.0
1 -17.077731 29.371035 -12.855844 1.0
1 -18.896405 28.408200 -14.856283 1.0
1 -19.781419 30.164551 -16.932595 1.0
1 -17.963671 30.989711 -18.982217 1.0
1 -17.075535 29.238409 -16.903858 1.0
1 -18.890537 28.279462 -18.893672 1.0
1 -19.776818 30.030281 -20.976295 1.0
1 -17.967228 30.861602 -23.031053 1.0
1 -17.076172 29.109803 -20.950911 1.0
1 -18.883989 28.149859 -22.945177 1.0
1 -19.782826 29.903476 -25.025421 1.0
1 -17.962400 30.728707 -27.068026 1.0
1 -17.076633 28.973612 -24.990435 1.0
1 -18.884539 28.023646 -26.984908 1.0
1 -19.774378 29.765986 -29.062086 1.0
1 -17.958840 30.595282 -31.116960 1.0
1 -17.071914 28.849608 -29.032327 1.0
1 -18.884643 27.892553 -31.032602 1.0
1 -19.774502 29.637799 -33.108812 1.0
1 -17.965923 30.465973 34.843700 1.0
1 -17.068947 28.717643 -33.076422 1.0
1 -18.887362 27.757659 34.927609 1.0
1 -17.068760 28.582598 32.880851 1.0
1 -16.153148 32.334266 -4.854385 1.0
1 -14.339319 33.164536 -6.911684 1.0
1 -13.451380 31.415468 -4.827037 1.0
1 -15.263926 30.454318 -6.825985 1.0
1 -16.152931 32.203674 -8.899713 1.0
1 -14.334953 33.026951 -10.957184 1.0
1 -13.449639 31.285861 -8.869836 1.0
1 -15.266265 30.325829 -10.863267 1.0
1 -16.152664 32.069526 -12.947391 1.0
1 -14.339675 32.900525 -14.997350 1.0
1 -13.445588 31.152064 -12.917436 1.0
1 -15.260154 30.195975 -14.905667 1.0
1 -16.156324 31.948777 -16.985216 1.0
1 -14.336391 32.774936 -19.041616 1.0
1 -13.447294 31.024643 -16.957430 1.0
1 -15.262286 30.063233 -18.953916 1.0
1 -16.154590 31.815007 -21.029176 1.0
1 -14.331345 32.639070 -23.086985 1.0
1 -13.440625 30.886415 -21.004136 1.0
1 -15.254328 29.938028 -22.996296 1.0
1 -16.148998 31.683103 -25.076544 1.0
1 -14.331579 32.511087 -27.131108 1.0
1 -13.441950 30.759711 -25.046461 1.0
1 -15.253200 29.808494 -27.036967 1.0
1 -16.144635 31.555063 -29.123514 1.0
1 -14.329018 32.382211 -31.167080 1.0
1 -13.435018 30.633900 -29.089056 1.0
1 -15.253513 29.677865 -31.085737 1.0
1 -16.147207 31.420269 -33.161833 1.0
1 -14.334706 32.245836 34.781439 1.0
1 -13.440568 30.496783 -33.133591 1.0
1 -15.250639 29.547887 34.869066 1.0
1 -16.145704 31.296603 32.787762 1.0
1 -14.326390 32.118271 30.742699 1.0
1 -13.436451 30.371655 32.817976 1.0
1 -15.248277 29.415288 30.829085 1.0
1 -13.436712 30.241085 28.773906 1.0
1 -10.707138 -34.923912 -2.916847 1.0
1 -11.628211 32.366004 -2.838148 1.0
1 -12.522414 34.118992 -4.912790 1.0
1 -10.708778 34.948297 -6.966223 1.0
1 -9.811337 33.199027 -4.885555 1.0
1 -11.635466 32.235978 -6.880862 1.0
1 -12.527482 33.985333 -8.962175 1.0
1 -10.704492 34.815563 -11.006507 1.0
1 -9.812230 33.061019 -8.928727 1.0
1 -11.626126 32.105263 -10.919192 1.0
1 -12.523742 33.854694 -13.003563 1.0
1 -10.700554 34.679499 -15.054986 1.0
1 -9.810721 32.933478 -12.972440 1.0
1 -11.631598 31.980924 -14.963397 1.0
1 -12.521912 33.728122 -17.050082 1.0
1 -10.702420 34.556893 -19.098654 1.0
1 -9.809473 32.808197 -17.016307 1.0
1 -11.629358 31.844373 -19.007076 1.0
1 -12.514573 33.597604 -21.086640 1.0
1 -10.701204 34.425053 -23.137831 1.0
1 -9.807417 32.674060 -21.056782 1.0
1 -11.626511 31.718339 -23.054203 1.0
1 -12.514367 33.469908 -25.137955 1.0
1 -10.705025 34.295753 -27.183182 1.0
1 -9.812417 32.545049 -25.103729 1.0
1 -11.621454 31.588137 -27.095043 1.0
1 -12.519614 33.336458 -29.176476 1.0
1 -10.700486 34.159210 -31.228339 1.0
1 -9.811523 32.410922 -29.150032 1.0
1 -11.618663 31.460279 -31.136472 1.0
1 -12.511787 33.204135 -33.222809 1.0
1 -10.696048 34.037326 34.728370 1.0
1 -9.808363 32.283747 -33.195290 1.0
1 -11.621788 31.331958 34.816227 1.0
1 -12.514340 33.077413 32.731703 1.0
1 -10.698731 33.905609 30.686023 1.0
1 -9.801494 32.156299 32.761171 1.0
1 -11.618600 31.195959 30.772889 1.0
1 -12.516596 32.946401 28.693064 1.0
1 -10.696981 33.772811 26.642867 1.0
1 -9.800166 32.025067 28.717744 1.0
1 -11.615563 31.069066 26.727067 1.0
1 -9.798492 31.896614 24.672708 1.0
1 -8.891619 -34.101957 -4.975632 1.0
1 -7.081109 -33.273562 -7.016063 1.0
1 -6.180738 34.974312 -4.938497 1.0
1 -7.998471 34.016286 -6.937481 1.0
1 -8.891365 -34.229960 -9.013555 1.0
1 -7.074986 -33.405509 -11.065489 1.0
1 -6.180832 34.844353 -8.985148 1.0
1 -7.999634 33.888568 -10.979358 1.0
1 -8.894973 -34.357193 -13.060391 1.0
1 -7.078609 -33.536196 -15.109620 1.0
1 -6.185490 34.713932 -13.025795 1.0
1 -7.995776 33.764922 -15.017933 1.0
1 -8.891407 -34.492137 -17.101252 1.0
1 -7.073704 -33.665901 -19.150438 1.0
1 -6.182554 34.588057 -17.074851 1.0
1 -7.992436 33.628363 -19.061811 1.0
1 -8.891658 -34.616401 -21.148094 1.0
1 -7.073258 -33.795219 -23.197274 1.0
1 -6.176770 34.457723 -21.113214 1.0
1 -7.998107 33.502135 -23.111174 1.0
1 -8.882022 -34.751218 -25.193976 1.0
1 -7.065217 -33.918844 -27.238358 1.0
1 -6.177866 34.331931 -25.164668 1.0
1 -7.990203 33.369013 -27.149794 1.0
1 -8.881900 -34.876238 -29.235714 1.0
1 -6.180051 34.198004 -29.208059 1.0
1 -7.996512 33.241850 -31.194363 1.0
1 -8.883242 34.989496 -33.279852 1.0
1 -6.172691 34.071303 -33.251548 1.0
1 -7.990684 33.110353 34.760057 1.0
1 -7.988388 32.977188 30.717525 1.0
1 -3.447187 -31.488430 -7.076074 1.0
1 -4.371568 -34.195527 -6.989827 1.0
1 -5.256238 -32.450224 -9.066237 1.0
1 -3.448228 -31.623515 -11.124149 1.0
1 -2.555278 -33.366882 -9.044723 1.0
1 -4.362678 -34.326391 -11.030352 1.0
1 -5.255986 -32.575940 -13.113474 1.0
1 -2.552284 -33.504258 -13.085562 1.0
1 -4.361223 -34.451253 -15.076340 1.0
1 -5.260224 -32.704356 -17.158817 1.0
1 -2.554418 -33.632660 -17.130733 1.0
1 -4.367203 -34.584041 -19.125771 1.0
1 -5.251151 -32.835785 -21.198567 1.0
1 -4.364584 -34.718870 -23.166930 1.0
1 -0.734121 -32.547287 -11.092032 1.0
1 29.287497 13.259391 -12.344207 1.0
1 27.474843 12.298089 -14.344763 1.0
1 29.286305 13.126120 -16.393454 1.0
1 30.210191 15.960658 -12.431805 1.0
1 32.026476 16.789902 -14.490167 1.0
1 32.915602 15.034916 -12.401863 1.0
1 31.105174 14.085177 -14.396577 1.0
1 32.921376 14.911312 -16.443908 1.0
1 31.106064 13.954686 -18.442938 1.0
1 32.919570 14.778187 -20.497496 1.0
1 -34.339062 18.704076 -10.496555 1.0
1 34.731213 15.991277 -10.407870 1.0
1 33.839175 17.744951 -12.487149 1.0
1 -34.337029 18.572803 -14.542629 1.0
1 -33.449480 16.820484 -12.462043 1.0
1 34.731892 15.864803 -14.456820 1.0
1 33.840697 17.617567 -16.534483 1.0
1 -34.335987 18.445607 -18.580848 1.0
1 -33.442997 16.687270 -16.505712 1.0
1 34.736763 15.739369 -18.496768 1.0
1 -34.336193 18.307155 -22.626027 1.0
1 -33.444801 16.562291 -20.544598 1.0
1 34.734384 15.608739 -22.543230 1.0
1 -33.449137 16.427566 -24.596673 1.0
1 -30.714506 20.480617 -10.551931 1.0
1 -29.823122 18.732886 -8.478403 1.0
1 -31.638622 17.782998 -10.470462 1.0
1 -32.521529 19.531692 -12.543551 1.0
1 -30.710261 20.355335 -14.598761 1.0
1 -29.819159 18.602217 -12.517064 1.0
1 -31.634865 17.649891 -14.509956 1.0
1 -32.528056 19.394188 -16.590030 1.0
1 -30.711386 20.227895 -18.642520 1.0
1 -29.816438 18.476317 -16.562965 1.0
1 -31.629489 17.521277 -18.557416 1.0
1 -32.524202 19.266799 -20.640718 1.0
1 -30.706468 20.090972 -22.684215 1.0
1 -29.814616 18.345063 -20.609109 1.0
1 -31.625929 17.392867 -22.597896 1.0
1 -32.517139 19.141057 -24.677657 1.0
1 -30.703455 19.962967 -26.726342 1.0
1 -29.814317 18.214368 -24.644122 1.0
1 -31.632884 17.261770 -26.641974 1.0
1 -29.809385 18.088649 -28.690475 1.0
1 -27.076849 22.401730 -6.568211 1.0
1 -28.897226 21.439544 -8.557374 1.0
1 -27.080940 22.267767 -10.608313 1.0
1 -26.184885 20.516894 -8.528251 1.0
1 -28.007601 19.562263 -10.518787 1.0
1 -28.889994 21.310218 -12.604734 1.0
1 -27.075894 22.143036 -14.654715 1.0
1 -26.191229 20.385342 -12.575876 1.0
1 -28.005243 19.427106 -14.567081 1.0
1 -28.896226 21.185280 -16.646403 1.0
1 -27.072244 22.004703 -18.693781 1.0
1 -26.186657 20.260330 -16.620283 1.0
1 -28.001552 19.302999 -18.609799 1.0
1 -28.893342 21.051029 -20.690264 1.0
1 -27.078893 21.880599 -22.737523 1.0
1 -26.179213 20.131864 -20.663506 1.0
1 -27.999147 19.172807 -22.653541 1.0
1 -28.888183 20.918307 -24.731123 1.0
1 -27.071451 21.743139 -26.785529 1.0
1 -26.186215 19.995087 -24.706373 1.0
1 -27.998703 19.041172 -26.698399 1.0
1 -28.886972 20.790848 -28.784212 1.0
1 -27.068344 21.616177 -30.834762 1.0
1 -26.177779 19.873043 -28.744347 1.0
1 -27.994851 18.908985 -30.739473 1.0
1 -26.177733 19.736271 -32.797420 1.0
1 -23.446595 24.182936 -6.626124 1.0
1 -24.368586 21.477598 -6.532547 1.0
1 -25.259383 23.220304 -8.616250 1.0
1 -23.449412 24.055943 -10.666441 1.0
1 -22.551498 22.306179 -8.586585 1.0
1 -24.370178 21.342769 -10.582708 1.0