2000
step:5885 columns:species,pos dt:0.005 cell:10.651497403834572,10.651497403834572,10.651497403834572 
1 -3.5545520782470703 3.888638496398926 -4.829322814941406
1 0.35577261447906494 4.528243541717529 -1.1272075176239014
1 3.9949140548706055 0.6582177877426147 -3.082015037536621
1 1.4318807125091553 0.7662973999977112 2.8959643840789795
1 0.25590988993644714 -1.1935964822769165 -0.6517186164855957
1 -4.984788417816162 2.4614272117614746 -4.531516075134277
1 0.32780155539512634 -2.589308500289917 0.8232418298721313
1 -3.7860488891601562 -2.511833429336548 -3.2228662967681885
1 -5.196709632873535 -0.764372706413269 -4.848809242248535
1 5.279791355133057 4.491755962371826 -3.7001593112945557
1 3.8863484859466553 -2.136786460876465 4.507167816162109
1 1.1319732666015625 -0.12113755941390991 1.2711297273635864
1 -2.667088747024536 3.3195974826812744 -2.379793882369995
1 3.383281707763672 3.8859965801239014 -0.8997509479522705
1 -3.498154401779175 1.132688283920288 -1.2768563032150269
1 2.1430742740631104 1.7355631589889526 -4.779976844787598
1 -4.510256290435791 -2.429264545440674 0.9533542990684509
1 2.3591415882110596 -2.6579575538635254 -1.1512035131454468
1 4.87579870223999 7.92000864748843e-05 -2.899221658706665
1 0.3566906154155731 -3.469078779220581 -4.221640586853027
1 4.830044269561768 -1.5533092021942139 4.194422721862793
1 -4.2851433753967285 -1.6588648557662964 -3.548313617706299
1 -3.7866125106811523 -0.571867048740387 1.1620134115219116
1 -2.8293566703796387 -0.5131000280380249 3.8120877742767334
1 -0.10464085638523102 -0.04162454605102539 5.123313903808594
1 -4.554837703704834 2.750722646713257 1.9992045164108276
1 -0.21645234525203705 -3.0917744636535645 -1.3669397830963135
1 -2.1228320598602295 -0.010468771681189537 3.175084114074707
1 -1.0564173460006714 4.136385917663574 -2.5665829181671143
1 -1.7591601610183716 -0.4023889899253845 -0.1320204734802246
1 4.978878498077393 4.272761821746826 4.058116912841797
1 -1.806938648223877 0.03297886997461319 -1.8274043798446655
1 2.56398344039917 2.550004243850708 -1.6509923934936523
1 -3.5234179496765137 -5.230940341949463 3.7379143238067627
1 4.577731132507324 3.7098231315612793 -3.7304091453552246
1 -5.157953262329102 3.0352420806884766 2.853195905685425
1 0.25049957633018494 4.897346496582031 -3.345747470855713
1 -4.315977096557617 -0.9887654185295105 4.459807395935059
1 5.159715175628662 2.2977001667022705 -3.137281894683838
1 -5.254152774810791 -4.577640056610107 -1.0428121089935303
1 4.873959064483643 3.921497344970703 0.018575109541416168
1 -2.4067375659942627 4.372519016265869 -0.8438882827758789
1 2.1502912044525146 -0.8279843926429749 -0.23906001448631287
1 1.6645196676254272 -3.564441442489624 2.7512950897216797
1 -0.7263078689575195 -2.0736942291259766 -2.8034393787384033
1 -4.2754597663879395 -4.419183731079102 2.3317856788635254
1 -4.8877997398376465 5.177727699279785 0.0667494609951973
1 -2.8045237064361572 3.028294324874878 4.14778995513916
1 -4.082208156585693 -3.5383174419403076 3.6285741329193115
1 -1.5447726249694824 0.6439540982246399 3.768085479736328
1 3.839850902557373 -1.8525437116622925 0.2525554597377777
1 4.442821502685547 -3.7811925411224365 -3.5954904556274414
1 1.3712936639785767 -4.930939674377441 -3.9360713958740234
1 -1.6594374179840088 -1.1362746953964233 -1.581071376800537
1 3.498303174972534 2.0286664962768555 0.10875439643859863
1 2.422034502029419 0.41438156366348267 1.0581843852996826
1 -3.201057195663452 2.976841926574707 -1.410109519958496
1 4.890628814697266 -1.4623405933380127 -3.6352834701538086
1 0.3797800540924072 -5.150217056274414 0.8704819083213806
1 2.6384530067443848 0.20337975025177002 -5.278645992279053
1 3.8053200244903564 0.19612626731395721 3.894547700881958
1 0.9906986355781555 -2.8580636978149414 -2.508617401123047
1 0.9028424620628357 -2.9799933433532715 -1.4046621322631836
1 -0.5161065459251404 4.803523063659668 2.4099059104919434
1 -2.1860554218292236 3.4894280433654785 3.459092140197754
1 3.338698387145996 3.1448726654052734 4.352745056152344
1 -0.3192792236804962 3.4531495571136475 -2.2868921756744385
1 -3.115922451019287 2.2622463703155518 -2.5259718894958496
1 -0.09468336403369904 2.4470908641815186 3.754795789718628
1 1.1607279777526855 0.8253947496414185 1.8730906248092651
1 -0.9273272752761841 -3.9404287338256836 -1.507293701171875
1 -3.1638214588165283 0.7040971517562866 0.1547504961490631
1 -2.7820146083831787 -4.732715606689453 -1.6396560668945312
1 -4.33369779586792 3.7930562496185303 -2.1112804412841797
1 -0.23782841861248016 1.0276411771774292 2.7507588863372803
1 2.8150806427001953 -2.226039409637451 4.314619064331055
1 3.1651391983032227 2.5209763050079346 -4.293093204498291
1 -0.13579104840755463 2.0415172576904297 1.0307059288024902
1 2.4918599128723145 -1.6640160083770752 2.634287118911743
1 0.024960238486528397 -4.7397027015686035 3.769379138946533
1 1.207271933555603 4.6741838455200195 4.542358875274658
1 1.1796714067459106 -0.722389817237854 -1.257045865058899
1 1.9828746318817139 5.026731967926025 -2.4801084995269775
1 -3.9965901374816895 -4.240508556365967 5.044265270233154
1 2.5153632164001465 -2.490934133529663 3.2972140312194824
1 -3.3132500648498535 -1.502861499786377 -5.140482425689697
1 -1.6039210557937622 4.296257495880127 -4.533416271209717
1 -1.001060128211975 1.6886569261550903 -3.049652338027954
1 1.4208297729492188 -1.3925527334213257 0.2349804788827896
1 0.42806944251060486 3.1169745922088623 5.289172172546387
1 -0.5735756158828735 -1.5931023359298706 2.726411819458008
1 -3.166820764541626 4.746912002563477 4.513257026672363
1 5.174768447875977 -2.702237367630005 0.9183309078216553
1 -0.45681482553482056 0.7101841568946838 -2.9091057777404785
1 1.3371847867965698 -4.097777366638184 3.6373026371002197
1 -5.0755510330200195 3.884819746017456 -2.911759614944458
1 -3.2223427295684814 -1.6253870725631714 -1.4122307300567627
1 -2.546085834503174 -1.7050989866256714 -3.0494234561920166
1 4.595501899719238 -2.8304338455200195 -3.7556722164154053
1 4.344727516174316 4.994675636291504 -4.801176071166992
1 1.6572877168655396 -0.2817930281162262 -4.324995517730713
1 3.286687135696411 0.9702275395393372 5.0069403648376465
1 -2.5892913341522217 0.2940869629383087 0.9975131154060364
1 -0.3204518258571625 0.6858199238777161 -0.9065061211585999
1 0.5049784183502197 2.3305928707122803 2.8474390506744385
1 -3.6719119548797607 1.412862777709961 1.2762975692749023
1 -1.1796364784240723 -0.09893493354320526 4.671121597290039
1 -0.5218603610992432 -1.1055563688278198 -1.3788398504257202
1 3.4753503799438477 -4.432680130004883 -2.705085039138794
1 -4.6712751388549805 3.3460006713867188 1.1015605926513672
1 -2.2931463718414307 3.1383330821990967 1.0491763353347778
1 0.15560466051101685 1.173951268196106 0.28640300035476685
1 -4.999713897705078 1.2819838523864746 -0.7419351935386658
1 2.9994888305664062 -0.7951614856719971 -1.9619885683059692
1 3.3098995685577393 -0.14252477884292603 -3.4976110458374023
1 -4.131380558013916 2.4676742553710938 -5.292035102844238
1 -2.4759092330932617 -3.021235466003418 -0.01364065706729889
1 2.000385046005249 -4.714635372161865 -1.1776741743087769
1 2.1225168704986572 3.1354966163635254 -0.7793561816215515
1 -5.073922157287598 -0.8467653393745422 1.132559895515442
1 3.168222665786743 1.6881840229034424 -1.3323413133621216
1 2.859870433807373 -3.048745632171631 1.6122530698776245
1 4.090365409851074 -1.3197777271270752 3.4437878131866455
1 1.7263505458831787 -0.7745751738548279 -2.7353878021240234
1 -0.6423719525337219 4.344267845153809 -3.502117872238159
1 -3.3819377422332764 -0.30550315976142883 -2.0667884349823
1 -4.201463222503662 2.919713020324707 -1.8367506265640259
1 3.6691057682037354 3.943324089050293 4.933129787445068
1 -2.8388020992279053 -4.040746212005615 -4.6439104080200195
1 -1.6102211475372314 -1.1202301979064941 4.541428089141846
1 4.553485870361328 4.102545738220215 -2.5783307552337646
1 2.076829671859741 -2.870314598083496 -3.862478017807007
1 -3.4417011737823486 -1.7681280374526978 0.07262302935123444
1 1.3133653402328491 -0.06765017658472061 5.31873083114624
1 4.740573406219482 5.173079013824463 -2.301673173904419
1 3.7351677417755127 -2.7576470375061035 3.514035940170288
1 0.5751331448554993 3.2451863288879395 4.159663677215576
1 -4.9897541999816895 2.0679500102996826 3.449735641479492
1 -1.877734899520874 -1.4288080930709839 2.5184786319732666
1 0.33653950691223145 -2.965686559677124 1.8982900381088257
1 0.8861270546913147 -5.160247325897217 -0.06467506289482117
1 -3.16363787651062 3.936072587966919 3.182675361633301
1 0.23798024654388428 -4.0735626220703125 0.7880939841270447
1 -1.5136984586715698 0.23921489715576172 0.7147154808044434
1 -1.4791018962860107 -2.6108148097991943 -1.2517567873001099
1 -2.9562652111053467 3.989285469055176 0.811908483505249
1 1.080510139465332 4.816173553466797 2.2094714641571045
1 -3.625406265258789 -5.174652099609375 -1.0733219385147095
1 -3.7208786010742188 2.768024444580078 3.4316022396087646
1 2.8560638427734375 3.616410255432129 2.5023629665374756
1 -3.2973668575286865 -0.9662696719169617 -0.66343754529953
1 5.300109386444092 -2.971027374267578 5.188990116119385
1 -3.8709776401519775 -1.6366819143295288 1.036536455154419
1 0.1911698877811432 -0.5323201417922974 -2.068051815032959
1 -4.530980110168457 -3.2236573696136475 -3.143148422241211
1 -3.0036935806274414 -4.023131847381592 -3.4789955615997314
1 4.759469985961914 -0.7901498079299927 -2.1535890102386475
1 2.100508451461792 0.8577962517738342 -3.4070963859558105
1 0.6241843700408936 1.4540303945541382 -4.7385029792785645
1 -3.616408586502075 -5.270267009735107 5.255133152008057
1 -2.8251428604125977 1.459542989730835 -4.441277503967285
1 4.9703850746154785 -5.142057418823242 2.556326389312744
1 -5.3121209144592285 -2.5112783908843994 4.190196990966797
1 0.3023506999015808 2.712256669998169 -1.193682074546814
1 4.492003440856934 -3.4250054359436035 2.5861704349517822
1 1.5963188409805298 4.189871311187744 1.4467250108718872
1 -0.7839240431785583 4.212779521942139 0.827664315700531
1 -3.0441112518310547 -2.2030224800109863 1.3933922052383423
1 0.48622599244117737 0.9797476530075073 -3.2828001976013184
1 1.0625019073486328 2.9381496906280518 -0.5456060767173767
1 -0.9373348355293274 5.214909076690674 0.2806418836116791
1 -5.126039981842041 4.550357341766357 -0.9470769762992859
1 4.084295272827148 -5.1620774269104 -0.3075011372566223
1 3.7585203647613525 4.20181941986084 -4.307102203369141
1 -4.300990104675293 -1.3211870193481445 -5.235470771789551
1 -1.010294795036316 1.4972257614135742 4.674176216125488
1 1.092525601387024 -5.0930867195129395 3.8180456161499023
1 -4.173233509063721 -2.522886276245117 4.123254776000977
1 3.615586280822754 3.0135321617126465 0.3147731125354767
1 2.8236379623413086 1.5374642610549927 -2.912750720977783
1 2.26069712638855 -3.9805235862731934 0.41570985317230225
1 -4.828066825866699 -2.4262311458587646 -2.055480718612671
1 1.1177046298980713 0.31039366126060486 3.7482478618621826
1 -0.17469161748886108 -3.6511971950531006 2.5155529975891113
1 -1.6800788640975952 -1.5735573768615723 -4.428184986114502
1 5.288356304168701 4.492351055145264 -4.796387672424316
1 -3.415678024291992 -0.8690429925918579 -3.642409324645996
1 3.503722906112671 3.9326350688934326 -2.327136516571045
1 -2.3512122631073 5.095253944396973 2.549687623977661
1 0.37547531723976135 -3.74837064743042 3.346971273422241
1 3.6483399868011475 -3.8915836811065674 5.016752243041992
1 -1.7057406902313232 2.6244614124298096 3.042279005050659
1 4.058820724487305 1.6754273176193237 -0.7704676389694214
1 -1.7498230934143066 -3.8499064445495605 5.221119403839111
1 -1.144425630569458 -4.757500648498535 1.1678043603897095
1 4.587614059448242 -4.745268821716309 4.489635944366455
1 2.119337320327759 -1.7649803161621094 -3.6077640056610107
1 2.8449642658233643 -4.135921478271484 -1.4338233470916748
1 2.152366876602173 2.25144100189209 3.28594708442688
1 3.3921399116516113 4.971684455871582 -3.549619674682617
1 1.5479967594146729 4.328375816345215 -5.084242820739746
1 0.37075430154800415 4.362368583679199 3.998948574066162
1 -0.29048165678977966 -2.7244443893432617 -0.33014512062072754
1 4.060573577880859 -0.36716166138648987 2.915215253829956
1 -0.02343272790312767 -0.7761916518211365 0.2971267104148865
1 2.4578945636749268 0.08759836852550507 -1.766552448272705
1 -2.743804693222046 2.030869960784912 4.518988132476807
1 -1.2180979251861572 3.8753888607025146 3.7486186027526855
1 -4.878915786743164 -5.1158342361450195 -2.4929590225219727
1 -4.289597511291504 4.681077003479004 -4.954854488372803
1 3.6684796810150146 -2.971923828125 0.09714509546756744
1 4.1683349609375 -5.051097869873047 -3.1475725173950195
1 3.653156042098999 -3.588142156600952 1.0368038415908813
1 3.709566116333008 -5.166217803955078 4.07107400894165
1 0.5580127835273743 5.236248016357422 5.281848907470703
1 -0.039544977247714996 -0.673841118812561 -3.142200469970703
1 0.7843012809753418 -2.406362771987915 -0.04899124056100845
1 -4.234044551849365 1.6796518564224243 2.191242218017578
1 -3.975451946258545 1.6488697528839111 -2.2249207496643066
1 4.631659030914307 2.928356409072876 0.2690626382827759
1 -2.395744800567627 -0.6010670065879822 1.5340944528579712
1 -1.9009181261062622 -5.0627241134643555 5.152942657470703
1 -3.666012763977051 -2.4902312755584717 5.120035171508789
1 1.6549060344696045 -4.301266193389893 -4.787705421447754
1 -2.3052899837493896 1.7286961078643799 3.226489543914795
1 -1.102311611175537 4.033230304718018 -0.7757112979888916
1 -2.727363109588623 0.20213498175144196 -3.893665313720703
1 -1.0370972156524658 1.2831509113311768 2.168452501296997
1 2.3426809310913086 -2.6594901084899902 5.192300319671631
1 -4.17794132232666 0.8686034679412842 0.6033240556716919
1 -1.478703498840332 0.2853109836578369 -0.8447005748748779
1 -4.63552713394165 -5.30889892578125 3.8756113052368164
1 -2.553236246109009 1.5605812072753906 -0.08621861040592194
1 4.7669806480407715 -3.2777373790740967 0.060518741607666016
1 -5.120414733886719 3.290278196334839 -3.8325908184051514
1 4.807153701782227 2.415978193283081 -0.66450035572052
1 -0.3762373924255371 -5.071667671203613 4.793303489685059
1 -4.980451583862305 -5.123757362365723 -3.6309142112731934
1 3.10133957862854 -4.426468372344971 0.7103331685066223
1 -2.2222485542297363 -1.8054583072662354 -0.9838582277297974
1 4.043075084686279 -0.272330641746521 0.9855714440345764
1 -3.4591119289398193 3.8484416007995605 -2.8363521099090576
1 2.283468246459961 -3.3787689208984375 -1.9343923330307007
1 -1.9123258590698242 4.097118854522705 5.01198673248291
1 -2.9420852661132812 -3.466493844985962 -0.8222759366035461
1 1.7139567136764526 2.1631669998168945 0.7130130529403687
1 1.893182635307312 -0.8122720718383789 3.1679868698120117
1 5.037303447723389 4.953653335571289 0.8792954087257385
1 -1.5153028964996338 -1.2094124555587769 1.5619380474090576
1 4.6309404373168945 -4.1274566650390625 -1.5479488372802734
1 -4.981053829193115 4.661839962005615 2.3824634552001953
1 4.8975419998168945 1.8419803380966187 -2.0650808811187744
1 -3.9355549812316895 1.1345036029815674 3.142944574356079
1 3.5914251804351807 -3.971053123474121 3.038296937942505
1 -0.10861735790967941 -4.693117618560791 -3.2092068195343018
1 -0.9601390957832336 -0.8672102093696594 -4.551369667053223
1 -3.4652109146118164 -0.6087619066238403 2.895763874053955
1 -1.9474807977676392 -2.370842456817627 -5.138050079345703
1 4.769254207611084 2.4623422622680664 1.2675340175628662
1 -3.6734111309051514 2.396521806716919 0.7994991540908813
1 4.6659255027771 2.753180503845215 -4.631485462188721
1 0.2271428108215332 0.1781948059797287 -0.07097481191158295
1 1.3529314994812012 1.0079562664031982 -2.6019816398620605
1 -0.17719578742980957 -4.427220344543457 1.6914010047912598
1 4.652961730957031 1.310460090637207 -4.893802642822266
1 -2.2967753410339355 -3.2795779705047607 4.417389869689941
1 -2.8140571117401123 0.3211100697517395 -1.5036919116973877
1 -1.4372555017471313 3.655902862548828 1.4502052068710327
1 -2.501923084259033 -0.8569592833518982 -4.254670143127441
1 -2.0422492027282715 -5.159958839416504 1.545129656791687
1 -1.9243477582931519 -4.099696159362793 -3.638535737991333
1 5.01334810256958 0.8645672798156738 0.9513079524040222
1 2.3823606967926025 2.671826124191284 4.242298126220703
1 -0.8309366703033447 -4.426525115966797 -2.518900156021118
1 -5.046990394592285 -0.5622006058692932 3.2425930500030518
1 0.8208948373794556 -1.9657704830169678 -0.9703859686851501
1 -1.4796258211135864 2.447601318359375 -1.6455613374710083
1 -4.5701375007629395 -2.0395679473876953 -4.514431953430176
1 3.9109437465667725 0.5914350152015686 2.0367519855499268
1 -0.6643805503845215 3.306335210800171 2.1028966903686523
1 -1.1285353899002075 2.8473968505859375 3.9309372901916504
1 -3.365518093109131 4.555243015289307 -0.4060981571674347
1 3.345656633377075 -4.910768508911133 2.460425853729248
1 5.02709436416626 -0.10054989904165268 2.4970386028289795
1 -1.5646953582763672 -3.4017152786254883 1.9597457647323608
1 -0.8917368054389954 -4.941555500030518 3.149120807647705
1 1.9083675146102905 -3.154020071029663 3.9651365280151367
1 3.427882194519043 4.774783134460449 -1.6057133674621582
1 0.4046812951564789 -5.229012489318848 -4.258025169372559
1 3.478529930114746 4.675710678100586 1.204392433166504
1 -4.1158928871154785 1.797536015510559 3.823997974395752
1 -4.856810569763184 -0.8924594521522522 -3.2356278896331787
1 3.6747493743896484 1.6995630264282227 3.684030532836914
1 4.219501972198486 0.9582934379577637 -2.084946393966675
1 1.0035333633422852 -4.382002830505371 -1.518963098526001
1 -2.669968843460083 -4.552880764007568 3.966810941696167
1 3.5881049633026123 1.6320161819458008 1.9098351001739502
1 -3.13484787940979 0.4054119288921356 2.7901599407196045
1 -4.308314800262451 4.759795188903809 -1.5016303062438965
1 5.258183002471924 -4.261155605316162 0.7841297388076782
1 5.233868598937988 4.10234260559082 1.5275603532791138
1 3.500908136367798 -3.5102522373199463 -0.7632978558540344
1 5.196104049682617 0.6579148769378662 3.22752046585083
1 -2.531893014907837 -4.844311714172363 0.0939176008105278
1 -3.971088171005249 -3.264352321624756 -0.7767331600189209
1 -1.546595811843872 0.687798798084259 5.288171291351318
1 1.368261456489563 1.7879308462142944 1.6928082704544067
1 -2.0468811988830566 4.034698963165283 2.2087204456329346
1 -1.639822006225586 4.526005268096924 -0.08388914912939072
1 -0.6010493636131287 -2.186160087585449 -1.7401946783065796
1 -2.2803266048431396 2.8664193153381348 -4.954441070556641
1 -1.0761164426803589 2.3713409900665283 -3.9385550022125244
1 -3.8463759422302246 4.122885227203369 1.3189181089401245
1 3.404228925704956 3.148263931274414 -1.6061228513717651
1 -2.2888758182525635 4.868190765380859 0.6083056926727295
1 -2.8027799129486084 -1.9753748178482056 3.803689956665039
1 3.8346197605133057 -1.1135534048080444 -3.599257230758667
1 4.859952926635742 3.5802183151245117 -1.6808439493179321
1 2.077791213989258 0.5816953182220459 4.24851655960083
1 -4.691860675811768 2.527404546737671 0.4524206519126892
1 0.49399828910827637 3.8737547397613525 -0.2562583088874817
1 4.307738304138184 3.0129542350769043 -3.058919668197632
1 4.77787971496582 -2.806086778640747 3.264209270477295
1 -4.103363513946533 0.07236319780349731 4.6264119148254395
1 -0.8821879029273987 -5.2073655128479 -4.957579612731934
1 3.0975046157836914 0.8753781318664551 -2.0544660091400146
1 0.175014927983284 -3.7657830715179443 4.695755481719971
1 4.930777549743652 -3.2518396377563477 -1.0094516277313232
1 3.0997414588928223 -1.76069974899292 -4.001134872436523
1 1.941637635231018 -1.7102041244506836 -0.9196807146072388
1 2.082167148590088 4.318577766418457 4.383636951446533
1 1.570430040359497 0.45475903153419495 0.43552184104919434
1 -0.3437618911266327 -4.351720333099365 -4.072338581085205
1 -0.7146774530410767 -1.6735423803329468 4.696100234985352
1 2.0434162616729736 4.848240852355957 -4.2215352058410645
1 -1.3694162368774414 0.214641273021698 -2.786025047302246
1 -2.317746877670288 3.5741617679595947 -4.226774215698242
1 0.273538202047348 3.0385923385620117 0.8504701852798462
1 2.6992881298065186 -4.274136543273926 -3.380685806274414
1 4.4272003173828125 2.960987091064453 3.007377862930298
1 2.5519628524780273 1.6641556024551392 0.39299941062927246
1 -4.382522106170654 3.356597423553467 4.765309810638428
1 1.4212570190429688 -1.1470086574554443 -3.729069232940674
1 -4.099875450134277 5.13348913192749 2.008589744567871
1 -0.7634168267250061 3.7092580795288086 -4.364741325378418
1 -2.9577949047088623 3.794985294342041 4.954737663269043
1 3.387702465057373 -2.818079710006714 -1.52739679813385
1 -5.237907409667969 5.1437764167785645 4.659148693084717
1 -1.7276780605316162 -3.3964781761169434 -1.9973911046981812
1 -3.5992958545684814 0.17242270708084106 -4.56146764755249
1 3.542379379272461 -2.0267112255096436 2.793130874633789
1 2.6961700916290283 -0.620603621006012 1.349922776222229
1 2.4071154594421387 0.16099166870117188 2.914693832397461
1 -2.09513521194458 1.066123604774475 2.4039735794067383
1 2.7154834270477295 -3.377887725830078 2.6804490089416504
1 -2.6534628868103027 0.713611364364624 -5.249143123626709
1 1.7728363275527954 -2.044487476348877 1.937008261680603
1 -0.39029818773269653 4.454284191131592 -5.146322727203369
1 -2.8571321964263916 -3.2348792552948 -1.8808865547180176
1 2.6720449924468994 -1.6056402921676636 -5.037970066070557
1 -2.568330764770508 -2.9844393730163574 -4.545966625213623
1 -2.9677534103393555 -1.3400627374649048 2.1629042625427246
1 -1.4731934070587158 3.0929276943206787 4.939365386962891
1 0.5450361371040344 -5.306690692901611 -1.6995885372161865
1 -0.5441137552261353 1.0523865222930908 3.7549757957458496
1 -0.6492615938186646 1.6708126068115234 -0.3023622930049896
1 -4.691958904266357 -4.266172409057617 4.158748626708984
1 3.914487838745117 2.271228551864624 4.493038654327393
1 4.369084358215332 -2.290921926498413 -1.487930178642273
1 4.957871913909912 -0.2682396471500397 -3.9087257385253906
1 2.5383310317993164 -3.022592306137085 -0.1452547162771225
1 -3.060706377029419 2.8225038051605225 1.6554006338119507
1 -2.9334871768951416 -4.496541500091553 1.3142417669296265
1 2.962968587875366 0.8022695779800415 3.5343618392944336
1 -2.4773199558258057 -2.0788583755493164 0.5808073878288269
1 -1.6273999214172363 3.182504415512085 -2.4879255294799805
1 1.257991075515747 4.085689544677734 0.3898060917854309
1 3.491316556930542 -3.344663619995117 -2.4950931072235107
1 -0.2832872271537781 -2.646212339401245 -4.532243728637695
1 4.185388565063477 4.040555477142334 1.8248975276947021
1 -2.696415662765503 -0.9300551414489746 4.69403600692749
1 -2.87712025642395 -0.31790754199028015 -5.148003101348877
1 2.8800735473632812 4.660050868988037 5.105915546417236
1 -1.2455099821090698 -3.828295946121216 -4.459517478942871
1 2.3172197341918945 -0.15517570078372955 -3.472243547439575
1 -3.1262850761413574 0.757193386554718 1.8576661348342896
1 -0.5446510910987854 -2.831911325454712 -3.4557013511657715
1 0.7569993138313293 -1.4936164617538452 -2.0922646522521973
1 -1.2241004705429077 2.2381746768951416 1.0381609201431274
1 -2.917558193206787 -3.9687747955322266 4.84672212600708
1 1.617238998413086 -1.9672181606292725 -2.6127171516418457
1 -3.5523452758789062 -4.786243915557861 0.535698413848877
1 -0.31704428791999817 2.4775702953338623 -2.639185905456543
1 1.305395483970642 -3.809434413909912 0.8286876678466797
1 4.91442346572876 -4.049386024475098 5.300142765045166
1 2.5698859691619873 -3.004776954650879 -2.9370787143707275
1 0.7191415429115295 -0.8904404640197754 3.066952705383301
1 4.348160743713379 0.05695980414748192 -1.4714300632476807
1 -2.289011240005493 2.063483476638794 0.8914436101913452
1 -5.095013618469238 0.6470251679420471 -4.150209903717041
1 -3.3580000400543213 0.045757394284009933 -3.0618104934692383
1 0.3560759127140045 4.376397132873535 2.9356837272644043
1 1.5025590658187866 3.1137144565582275 -4.080617427825928
1 0.602008044719696 -2.7209489345550537 3.5543289184570312
1 0.5027090311050415 0.2813650965690613 -4.826292037963867
1 0.11994146555662155 -0.04497290030121803 1.692897081375122
1 0.5222179889678955 1.986847996711731 -3.0891380310058594
1 1.363620400428772 -0.023657219484448433 -2.1043362617492676
1 0.25066107511520386 1.722562313079834 1.9894638061523438
1 -0.842073380947113 0.4178284704685211 1.568089485168457
1 2.3250486850738525 2.4873311519622803 -2.6647837162017822
1 1.7815302610397339 5.226874351501465 2.8949575424194336
1 -4.355972766876221 0.9541159868240356 -4.799239635467529
1 5.148954391479492 1.1527401208877563 4.923165321350098
1 -4.058537006378174 0.1688975840806961 1.9103598594665527
1 -4.7543044090271 -1.6003016233444214 1.9791089296340942
1 1.9473453760147095 2.4439423084259033 5.1209588050842285
1 -1.4948912858963013 -1.6143134832382202 -3.364163398742676
1 -1.4305763244628906 -3.082001209259033 -0.2702202796936035
1 -2.852947473526001 1.912172794342041 -1.1258786916732788
1 -4.234034538269043 2.859492063522339 -0.5047752857208252
1 1.1449666023254395 1.4034141302108765 0.027551665902137756
1 2.6753358840942383 -3.5555996894836426 4.571591854095459
1 4.666022777557373 3.684779405593872 -5.227004051208496
1 1.3745683431625366 -3.3316664695739746 -4.385728359222412
1 1.1213641166687012 1.5758196115493774 -1.8133577108383179
1 1.4679778814315796 2.337850332260132 -3.3541345596313477
1 1.9105863571166992 4.0957136154174805 -1.1444240808486938
1 -0.21115338802337646 3.667740821838379 -1.2925281524658203
1 -3.0580010414123535 -3.818127393722534 3.3061444759368896
1 0.40802666544914246 -1.545095682144165 -3.6284759044647217
1 1.91993248462677 3.2518808841705322 2.883533000946045
1 -4.944157123565674 0.507465660572052 -2.4285080432891846
1 -5.309900760650635 -0.6131218671798706 4.178337574005127
1 2.6786739826202393 1.3224846124649048 1.4411723613739014
1 4.624361515045166 -1.0331474542617798 1.4502803087234497
1 -1.8038153648376465 -1.5217785835266113 -0.04795559495687485
1 2.695634126663208 3.4785900115966797 0.15548954904079437
1 5.066732883453369 -2.0660600662231445 -4.454390525817871
1 1.5380865335464478 -4.173241138458252 1.8758268356323242
1 -1.3027082681655884 -3.5117592811584473 -3.037200927734375
1 -2.9810280799865723 -2.5218238830566406 -2.5912647247314453
1 -3.2414205074310303 -4.004317283630371 2.240741729736328
1 0.4827708899974823 0.09121572971343994 -3.7625534534454346
1 0.9163264632225037 4.801424503326416 -2.5345914363861084
1 2.4229023456573486 4.951418399810791 -1.5821614265441895
1 -2.321963310241699 -3.886536121368408 0.5351209044456482
1 0.530826985836029 -4.251686096191406 -0.44220006465911865
1 4.511759281158447 -1.5079997777938843 -5.021533966064453
1 4.286591529846191 2.813114881515503 -2.0201196670532227
1 -5.070161819458008 0.18480515480041504 1.5860450267791748
1 -1.0508334636688232 -2.233637571334839 0.1849607229232788
1 -0.8892397284507751 -2.605659246444702 5.193809986114502
1 3.377372980117798 -0.16620878875255585 -4.607008457183838
1 4.040041446685791 5.264789581298828 3.062803268432617
1 0.23424065113067627 0.6479496955871582 4.3099799156188965
1 3.109098196029663 -1.5579568147659302 0.9410737752914429
1 -0.4933655560016632 2.0141401290893555 -1.3522522449493408
1 -1.0934374332427979 2.361694097518921 2.139040470123291
1 -0.8694291114807129 -4.088293075561523 4.563910484313965
1 -2.0935378074645996 4.88962984085083 4.3758955001831055
1 1.341739535331726 -3.7918076515197754 -2.3115363121032715
1 1.6968923807144165 4.711832523345947 -0.355007529258728
1 4.963365077972412 -2.0336272716522217 2.4955501556396484
1 -2.323744773864746 1.61595618724823 -1.9976482391357422
1 4.783290863037109 2.496124744415283 3.950944423675537
1 2.8152384757995605 -5.0591630935668945 -4.220391750335693
1 0.4001844823360443 -1.3910785913467407 2.157743453979492
1 -3.961777687072754 5.2436065673828125 -4.04278039932251
1 -0.976071834564209 2.569751739501953 -0.010494017973542213
1 -1.8717349767684937 -2.494060754776001 2.4799070358276367
1 1.3076499700546265 2.9908220767974854 0.45754826068878174
1 5.161882400512695 3.234271287918091 4.579490661621094
1 -1.6269882917404175 -4.94564962387085 -3.027440071105957
1 -3.6918225288391113 3.2952847480773926 2.434816598892212
1 2.63507080078125 1.033879280090332 -0.5822338461875916
1 2.4880192279815674 3.547844648361206 -2.650172472000122
1 -1.2848880290985107 -4.114095687866211 -0.5186318755149841
1 2.4607322216033936 -1.147983431816101 4.105585098266602
1 2.020826816558838 -4.472784519195557 4.8437347412109375
1 -0.6423966288566589 4.555249214172363 4.450600624084473
1 -5.286261558532715 1.482570767402649 2.4918317794799805
1 0.08700639009475708 1.2717561721801758 -1.805118203163147
1 -2.9420154094696045 -3.0050501823425293 -3.5538229942321777
1 -0.48111405968666077 -4.778475284576416 -0.3121316432952881
1 3.4597575664520264 -3.740544557571411 -3.9388065338134766
1 4.873973846435547 -1.7043184041976929 0.6240090131759644
1 -4.088919162750244 0.8854477405548096 -3.0583603382110596
1 5.150183200836182 -2.6984429359436035 -2.8310611248016357
1 -4.512169361114502 -0.23935377597808838 -4.046799182891846
1 2.126230239868164 -1.4762316942214966 -1.9380680322647095
1 -0.6128711700439453 2.8873202800750732 -5.032307147979736
1 -3.1453962326049805 1.2962898015975952 3.8395895957946777
1 -3.3420796394348145 -4.103209972381592 -2.4057743549346924
1 2.2836177349090576 3.403676748275757 1.1741403341293335
1 4.751373767852783 5.236863136291504 -1.2032015323638916
1 -4.4682745933532715 -4.007022857666016 -2.3428170680999756
1 -0.018491998314857483 -1.5510958433151245 -4.6458611488342285
1 -3.240135908126831 4.826776504516602 -3.36336350440979
1 -4.483651161193848 -3.698230743408203 -4.119679927825928
1 3.5645687580108643 -2.26322340965271 1.7443639039993286
1 -2.242201089859009 4.982330799102783 -1.6757173538208008
1 4.738740921020508 -4.761063098907471 1.565913200378418
1 -4.033115863800049 3.7328126430511475 3.8655245304107666