    1000
step:1433 columns:name,pos,signature,neighbors dt:1 cell:9.16966228992,9.16966228992,9.16966228992 
 A 3.055935 2.541405 -4.470677 1_3_4_6_1 981,902,323,172,333,802,277,17,437,426,324,114,768,259,242
 A 1.719929 4.377784 -4.395181 1_3_5_4_2 861,15,259,707,537,448,242,503,497,17,952,575,338,449,482
 A 0.994482 3.209758 -1.782812 2_4_3_6_1_2 811,640,800,231,637,124,609,271,797,501,641,579,355,914,773,827,875,398
 A 2.741495 4.574400 -0.030507 1_0_10_3_1 32,667,674,721,309,436,274,290,268,472,81,922,812,769,601
 A 0.498000 3.550709 -3.431854 0_2_8_5 656,575,449,871,127,649,387,832,952,609,462,124,800,398,631
 A -3.458018 -1.823939 3.924442 0_0_12 135,97,380,250,416,157,613,92,51,248,695,429
 A -3.106734 0.937077 4.225421 0_3_6_7 816,984,260,598,434,491,181,517,230,239,798,19,855,262,286,567
 A -4.037326 0.708701 1.497028 0_2_8_4 457,54,294,869,845,829,166,803,148,455,702,678,343,322
 A 1.172154 -3.306913 0.915431 1_4_4_4_3 672,666,473,309,498,876,255,505,431,379,310,470,804,511,351,783
 A 3.366927 -1.074046 -0.151341 0_3_6_5 728,280,708,100,266,68,136,307,102,212,825,888,931,183
 A 4.164353 3.080285 -2.780374 0_0_12_5 866,996,610,947,205,557,318,896,121,976,534,333,585,755,739,813,675
 A -1.357941 1.808442 0.245251 1_2_8_3_3 632,356,388,70,725,368,906,153,562,88,367,28,66,542,939,332,76
 A 3.919724 -3.614759 0.707795 0_3_6_5 32,723,58,419,210,673,513,225,967,364,174,667,922,138
 A 2.958870 -3.905054 -3.409029 0_1_10_4 113,670,405,15,707,537,972,833,253,265,191,353,53,983,882
 A 2.668060 4.258859 -3.658004 1_1_9_4_2 707,537,2,952,17,259,242,972,983,172,861,896,651,564,53,14,265
 A -0.098034 0.396555 -0.168568 1_3_5_2_2 134,750,64,39,76,884,328,142,485,358,356,465,644
 A 2.614483 3.215096 -3.803896 1_2_7_3_2 981,902,1,952,15,2,259,172,242,319,947,333,896,462,564
 A -0.961667 -0.110617 3.298860 0_1_10_4 445,749,291,500,964,962,949,372,742,524,91,119,696,684,559
 A -3.015108 1.664241 -4.140840 1_2_7_3_2 598,977,117,978,98,195,286,491,7,567,818,826,260,831,984
 A 3.519824 1.020464 3.439796 0_2_8_4 893,114,133,988,597,270,104,193,730,324,300,970,171,49
 A -3.920193 1.189517 -2.969026 0_2_8_2 240,101,443,286,582,813,978,862,117,653,638,195
 A 4.320269 -0.589325 -3.501486 1_1_8_4_1 232,158,808,396,857,712,945,847,403,46,963,150,450,101,74
 A -0.751792 2.552850 -4.072116 0_2_9_3_1 481,982,385,123,82,986,631,176,968,731,395,733,301,871,387
 A 0.758856 -4.293169 -0.618158 0_2_8_4 412,355,284,989,603,619,268,666,876,255,773,231,167,735
 A -1.298535 -1.518770 -4.357317 0_2_9_3_1 420,316,820,50,440,747,835,168,954,302,427,61,949,345,429
 A 3.594651 4.133799 4.083214 0_2_8_5 972,861,172,802,71,106,853,84,411,234,476,508,259,924,192
 A -2.184506 -4.081972 -2.469751 0_1_10_3 471,371,295,841,390,190,220,624,65,577,402,132,188,960
 A -2.387110 1.654836 0.205219 0_1_10_2 650,368,725,55,693,12,367,332,389,632,441,382,803
 A 3.069527 0.453866 -1.133626 0_3_6_6 180,347,162,507,538,502,757,494,280,212,704,658,515,728,708
 A -3.135789 -1.155064 1.879164 0_3_7_4_1 732,122,135,288,510,625,665,415,985,227,313,43,322,197,920
 A -1.093799 -2.892775 3.650944 0_0_12_3 820,420,50,729,830,991,886,329,428,254,321,80,527,573,807
 A 3.708143 4.528731 0.442307 1_3_5_6_2 643,819,601,943,218,812,225,723,667,13,922,4,436,674,274,58,364
 A 3.075152 -0.542560 -2.321866 1_1_9_2_2 971,604,217,180,913,658,515,450,780,605,377,945,847,280,74
 A 3.699523 -2.650899 3.189681 1_2_7_5_2 722,634,709,867,115,189,548,926,858,460,235,994,484,110,52,175,250
 A 3.108322 -4.353297 -1.592130 1_2_7_4_2 769,330,326,890,405,45,812,93,587,620,670,53,736,533,472,436
 A -0.034119 -3.201179 -1.392761 1_2_6_5_1 293,518,255,612,718,354,989,735,438,859,836,90,865,603,885
 A -2.502268 2.192055 2.784501 1_1_9_3_2 854,417,410,404,453,801,816,584,567,140,817,932,236,468,276,855
 A -3.923273 -2.535714 -0.842156 0_2_8_4 660,957,141,937,663,967,137,304,112,495,908,261,305,287
 A 0.250969 0.642901 -1.071205 0_3_6_5 465,376,700,328,142,891,273,912,622,884,134,16,311,76
 A 0.036780 1.267753 2.514955 1_2_7_5_2 170,275,445,936,164,317,642,742,160,592,999,684,590,781,129,569,724
 A 1.267489 2.147271 2.522623 0_3_6_6 164,129,746,568,184,479,421,761,751,565,160,99,243,211,170
 A 1.811431 3.659463 1.630145 0_3_6_7 770,558,77,544,81,498,530,607,953,391,274,99,568,761,860,499
 A -3.456742 -0.590305 2.738706 0_3_6_6 343,668,224,416,625,322,30,135,122,262,415,166,948,695,181
 A 1.159130 -0.854133 -3.775007 0_2_8_6 407,789,955,856,814,599,944,810,47,418,163,629,664,263,671,738
 A 4.089019 -3.598468 -1.856560 1_3_5_6_2 890,35,405,137,93,154,636,566,741,686,113,660,587,330,670,908,59
 A 4.568788 0.432956 -4.174471 0_1_10_3 396,403,730,798,133,300,623,984,286,240,74,101,857,22
 A 0.149523 -0.030450 -4.095802 0_1_10_6 661,629,163,302,810,177,306,552,152,279,944,44,749,887,464,263,291
 A 1.827379 1.578606 4.379502 0_2_8_5 902,323,277,243,184,324,279,787,244,366,930,270,474,170,393
 A 2.792078 1.292091 2.627033 1_1_8_3_1 597,851,531,184,479,211,324,20,270,375,970,987,171,56
 A -1.793179 -2.167708 4.194464 2_0_7_4_1 31,830,991,321,345,420,820,97,949,25,168,440,429,157
 A -3.564407 -1.773670 -4.063260 0_3_6_6 157,613,6,249,703,808,168,248,92,712,384,429,267,214,992
 A 3.696149 -1.670523 2.872475 0_4_5_5_1 722,583,994,250,110,34,726,238,858,198,541,484,536,973,296
 A 2.940123 4.461840 -2.654357 0_0_12_4 14,405,983,15,896,564,35,620,736,827,651,318,890,996,670,265
 A 4.120743 0.713860 1.758379 1_2_8_2_3 869,466,669,294,678,988,343,8,792,457,987,171,970,219,842,702
 A -2.863809 1.305101 -0.729976 2_2_6_2_4 693,258,389,881,332,130,435,373,950,748,969,454,28,725,650,216
 A 2.914237 1.917494 1.286333 2_4_3_4_3_1 915,698,689,159,842,156,942,669,717,320,499,987,251,479,851,49,171
 A -3.479351 -3.410317 4.570963 0_1_10_3 157,179,380,214,627,365,850,548,894,613,245,677,75,392
 A 3.529628 -4.284656 1.495578 3_3_3_3_4_1 460,235,419,839,723,32,13,648,943,667,544,348,1000,218,511,674,558
 A 3.715723 -2.495743 -1.076192 1_0_10_4_1 741,488,516,908,174,587,261,102,330,217,357,931,957,136,714,45
 A -3.769658 -4.506879 -2.976381 1_1_9_3_2 365,245,929,909,196,866,132,154,67,125,206,566,841,997,577,636
 A -1.790684 -0.685804 -4.416475 0_2_8_4 964,345,699,427,990,710,168,429,25,434,887,749,949,302
 A -0.335899 2.769906 3.195223 0_3_6_5 118,236,126,160,317,569,565,228,301,751,201,297,395,79
 A -1.623458 -1.848559 0.348150 1_3_6_3_3 456,203,313,227,155,630,361,540,940,752,256,927,496,576,247,360
 A 0.422226 0.389565 0.751171 3_2_4_5_1_2 16,358,485,592,781,590,145,142,478,328,356,128,83,863,350,750,134
 A -2.135381 -4.105246 -3.691967 0_2_8_6 400,402,188,841,740,371,627,365,997,344,754,392,321,27,635,577
 A -1.140011 2.344842 1.644929 0_2_8_5 486,939,932,801,642,236,899,569,724,388,12,542,367,88,118
 A -4.035755 4.217680 -1.614547 1_3_5_5_2 143,137,397,610,206,161,60,132,866,93,643,213,154,572,636,173
 A 2.982212 -1.362090 0.778376 0_1_10_2 888,874,828,425,183,102,616,215,583,10,266,100,523
 A 2.070050 -2.035129 4.403424 1_2_8_4_3 659,204,418,189,796,406,709,858,716,737,94,959,856,821,452,652,671,925
 A -1.667180 3.219776 -0.140464 0_2_8_6 562,799,483,368,546,662,676,216,725,549,308,939,414,185,88,12
 A 4.341965 3.626819 -4.564065 0_1_10_2 285,106,853,26,333,976,172,802,437,121,84,196,346
 A -3.806515 4.337420 1.506735 1_4_4_4_3 409,237,186,487,868,139,646,723,225,943,713,408,282,340,819,504
 A -4.044057 2.353306 0.420078 0_3_6_8 693,650,382,897,679,993,946,743,898,156,702,454,252,845,493,492,713
 A 3.876584 0.372132 -3.196769 1_3_5_4_2 101,22,46,945,658,33,618,116,300,377,995,571,403,240,847
 A -3.869627 -3.945091 3.505153 0_2_9_4_1 824,175,139,411,894,548,545,179,711,677,57,782,380,853,237,378
 A -0.935046 0.644469 -0.620424 1_3_4_7_1 435,314,332,356,16,884,376,39,12,451,822,153,644,465,905,485
 A 2.121765 3.950634 2.628229 0_2_9_4_1 770,42,558,761,120,607,554,476,938,394,448,348,953,544,199,421
 A 1.669998 1.985070 -1.004970 0_3_7_5_1 765,459,370,797,151,501,315,916,811,233,347,271,891,912,311,494
 A 0.125222 3.759341 2.515759 0_5_3_7_1 560,120,607,530,297,647,118,951,556,99,521,761,62,201,565,751
 A -0.771846 -3.794886 3.083827 1_1_9_3_2 581,573,254,729,428,31,764,329,933,715,903,786,532,951,297,878
 A 1.967795 4.124311 0.718883 0_3_6_4 544,42,558,268,4,290,498,309,284,860,274,674,391
 A -1.476662 3.470503 -3.318897 0_2_8_5 928,740,697,471,223,371,986,344,127,481,123,23,806,917,871
 A -0.421110 -0.105924 1.544951 0_1_10_4 940,467,485,358,64,863,592,590,439,559,696,999,684,745,257
 A 4.230874 -4.484757 -4.321497 0_2_8_5 26,71,172,234,253,850,972,245,894,196,853,909,983,411,976
 A -3.019932 -0.151784 -2.502494 0_1_10_2 873,837,555,232,653,582,638,974,772,442,373,680,200
 A -3.164778 -0.836290 -0.730782 0_0_12_3 872,305,112,386,359,974,327,535,881,373,287,688,442,553,540
 A 1.819666 -2.175781 2.502278 0_2_8_5 452,709,737,722,241,616,469,783,690,147,351,756,198,979,165
 A -0.742817 2.652460 0.559056 2_1_7_2_3 525,414,480,66,367,12,939,906,562,185,486,70,899,542,283
 A 1.499460 -0.170782 -1.910787 1_1_8_4_1 311,622,700,458,633,971,704,180,621,615,734,337,955,913,771
 A 0.526369 -2.424811 -1.826004 1_2_6_5_1 691,447,222,836,438,369,705,36,612,865,354,614,547,759,753
 A -0.959068 -1.207399 3.062539 0_4_4_7 345,420,949,524,18,962,895,467,696,119,886,527,229,991,805
 A -4.449135 -1.559010 4.396696 1_1_8_4_1 613,250,6,416,110,248,51,115,150,963,712,396,267,551,238
 A 4.226115 -4.577449 -1.321817 0_3_7_4_1 35,812,587,45,67,161,610,137,397,890,636,364,533,643,154
 A 1.098068 -2.318529 4.500000 0_3_8_3_2 814,599,95,959,611,406,69,856,843,452,430,807,701,671,925,652
 A 0.263828 -2.567394 -3.983703 0_2_8_5 424,784,747,820,316,807,701,94,611,814,599,843,222,264,692
 A 0.949094 -3.765153 2.417960 0_3_6_6 560,394,878,778,469,690,953,804,783,379,473,933,556,498,607
 A -2.727423 -2.057529 3.295499 1_2_7_4_2 991,50,830,179,157,380,144,135,383,941,122,695,345,732,6,429
 A -3.351684 2.649684 -3.849046 1_2_6_5_1 978,195,19,437,346,260,826,818,755,121,904,831,125,928,657
 A 0.690428 2.945732 1.516108 2_4_2_4_4 761,530,79,899,129,751,41,860,381,480,746,727,521,42,568,283
 A 3.994961 -1.602250 0.607225 0_2_8_4 307,10,266,197,523,102,673,215,246,809,136,261,536,68
 A -4.284383 0.284912 -3.079344 1_2_6_5_1 240,286,46,582,21,638,443,22,945,74,857,232,571,169,837
 A 3.334976 -2.180711 -0.039167 0_0_12_3 261,174,59,136,100,720,714,138,673,931,874,68,215,10,888
 A -0.763350 4.079409 -1.999911 0_2_8_5 127,917,371,401,885,960,923,269,579,483,223,398,124,231,167
 A 3.319730 0.007800 3.243895 0_4_4_7 375,970,296,574,726,270,193,20,238,331,224,988,730,919,792
 A -4.110820 3.248963 2.769226 0_3_7_6_1 409,186,237,782,646,363,106,934,410,543,417,202,378,854,298,493,285
 A 4.372170 3.674418 3.539621 0_4_4_6 285,378,853,802,508,363,192,26,71,782,105,411,934,646
 A -2.468074 -3.703731 0.997150 1_2_7_5_2 774,975,272,256,927,131,456,892,522,868,334,340,918,591,487,763,907
 A -1.520140 -2.900211 -1.250314 0_0_12_3 390,859,790,220,687,570,354,580,360,791,361,477,518,190,496
 A 1.560840 -0.582067 3.637534 0_4_4_7 919,716,574,490,474,418,671,925,901,349,263,352,834,165,737
 A 3.821685 -1.611074 3.908642 1_3_6_4_1_1 150,238,331,858,726,973,52,189,34,115,250,204,92,416,551,396
 A -0.731460 -2.048133 -2.702268 0_1_10_4 719,354,753,954,835,606,747,758,424,784,759,292,612,190,477
 A -3.067711 -2.038080 -0.680947 0_1_10_3 287,688,570,361,86,540,38,305,155,304,687,937,495,872
 A 3.622481 -3.052881 -2.771633 0_1_10_5 882,475,253,645,209,325,670,45,330,14,405,353,488,741,686,566
 A 3.778085 1.802183 4.087194 0_1_10_4 437,802,426,1,768,324,363,133,20,893,597,300,299,623,323
 A 4.113595 -2.648234 4.283090 0_2_8_4 250,34,110,189,548,234,926,475,92,551,850,267,613,867
 A 3.219315 1.209949 -3.404341 0_4_6_5_0_1 323,300,618,506,244,377,362,995,658,74,205,426,981,240,880,162
 A -2.792769 1.342135 -3.180613 0_1_10_4 653,312,413,848,221,977,19,818,555,598,978,286,21,862,582
 A -0.777217 3.223634 2.279883 0_2_9_4_1 62,751,79,297,647,444,521,486,899,932,66,236,126,965,569,795
 A -1.724682 -0.558751 2.701833 0_3_6_6 559,467,985,805,964,948,345,122,372,18,415,696,91,681,949
 A 1.234034 3.742122 3.035206 1_0_9_3 565,79,761,560,201,589,497,421,77,394,607,530,448
 A -4.225054 3.256771 -3.789025 0_1_10_2 755,98,125,71,196,346,11,333,534,195,437,866,976
 A -2.537970 -1.252347 2.688959 0_2_8_5 948,119,415,43,695,97,732,941,345,805,30,313,985,991,135
 A -1.839083 2.585304 -3.812660 0_1_10_4 848,977,982,928,697,831,826,818,806,82,731,986,481,733,23
 A 0.427548 3.913451 -2.437751 0_3_6_6 579,103,398,656,609,5,800,3,231,637,832,923,767,885,127
 A -3.379628 3.735165 -3.298732 0_2_8_6 60,132,841,997,740,904,346,121,196,928,98,471,206,866,657,755
 A -1.234809 3.198515 3.529463 0_1_10_2 444,654,297,276,733,849,395,140,301,62,817,236,118
 A -0.450153 3.988511 -3.057194 0_2_8_5 917,82,871,832,649,149,5,398,124,103,986,344,371,923,188
 A 1.377570 1.405649 0.683071 1_2_6_6_1 717,478,145,916,370,765,781,64,915,746,942,328,494,142,283,727
 A 0.548373 1.989553 1.853004 1_1_8_3_1 899,283,724,751,99,160,569,40,727,746,781,164,41,568
 A -2.317994 2.070753 -1.266026 1_2_6_3_1 289,799,194,650,55,725,153,216,748,413,950,332,435
 A -3.299760 -3.262422 0.554431 0_2_8_6 864,975,340,840,513,868,225,107,334,304,967,927,256,288,495,155
 A -3.177699 4.419309 -2.153652 1_1_8_3_1 27,295,471,572,841,125,206,60,143,624,154,866,67,577
 A 4.397591 0.897056 4.033271 1_1_8_3_1 224,239,798,730,300,193,988,20,893,984,114,623,46,299
 A 0.583587 -0.339872 -0.492942 1_4_4_5_3 369,762,911,16,358,64,734,700,311,142,644,838,465,39,750,458,278
 A -3.502633 -1.636039 2.875115 0_2_8_6 732,30,122,484,973,625,510,380,6,250,416,43,668,695,97,144
 A 4.096330 -1.330646 -0.913811 1_2_7_6_2 261,102,59,957,327,307,305,100,958,516,605,728,10,931,280,169,809,217
 A -4.217314 -3.950023 -1.054900 0_3_6_5 397,864,364,38,663,660,967,67,143,908,154,587,93,45
 A 3.115895 -3.055468 0.616578 0_1_10_4 174,102,673,720,874,241,511,419,922,13,667,721,310,714,215
 A -3.882959 -4.008534 2.231122 0_3_6_8 723,839,235,72,868,75,545,175,237,487,943,646,683,782,144,824,334
 A -1.709052 2.216810 3.710552 0_2_8_4 276,817,567,731,301,733,826,468,776,491,126,236,317,37
 A -3.952774 -2.250884 -1.906133 0_2_8_6 158,958,998,305,287,937,38,660,957,741,516,209,686,341,844,384
 A 1.010954 0.606493 -0.141226 1_2_6_4_1 145,478,64,765,128,891,328,494,16,134,750,311,39,734
 A -3.335057 -4.464753 -1.164139 0_0_12_2 624,663,760,154,137,779,921,213,572,132,67,864,397,295
 A -3.303195 -2.634637 2.617626 2_2_4_6_2 334,683,510,380,250,175,732,484,383,545,139,97,941,135,179,830
 A 1.772655 0.391478 0.440800 2_3_4_3_4 183,320,335,478,717,494,212,734,750,142,350,128,915,278,64,765
 A 0.019434 -0.098252 -2.403105 0_2_8_4 700,615,621,177,374,846,661,182,823,376,292,622,629,465
 A 0.801283 -1.829540 2.066086 0_0_12_3 685,229,165,756,422,783,690,379,257,956,470,979,596,87,351
 A -3.383846 1.455083 1.736152 0_5_4_4_2 404,584,166,702,8,678,441,382,453,845,803,343,543,493,417
 A -0.501750 -4.114598 -3.813271 0_3_6_7 935,692,264,923,127,832,966,424,188,344,449,649,400,254,342,635
 A 3.853931 -1.000638 -4.277584 2_1_7_3_1_1 963,22,847,396,238,331,730,403,712,110,655,489,204,551,92
 A 2.456025 2.781419 -0.758570 1_1_8_4_1 797,641,501,459,78,315,370,436,463,433,698,595,274,290,391
 A 0.219497 1.110667 -4.029166 0_1_10_2 529,661,393,968,275,464,930,552,47,279,306,176,385
 A -1.159769 1.866561 -0.837059 0_1_10_4 194,799,269,130,725,822,76,435,562,12,332,682,884,906,356
 A -3.870379 -3.984222 -2.036584 0_1_10_5 45,686,566,624,663,143,844,660,137,577,60,929,67,132,636,93
 A -2.731072 -2.149674 0.264341 1_1_8_3_1 227,288,313,112,304,495,131,256,927,361,540,872,63,456
 A 3.986477 1.900594 0.631352 0_2_8_6 492,743,73,252,509,898,669,689,466,159,842,869,702,56,463,845
 A -2.783027 -2.604383 4.283101 0_4_4_8 321,50,440,179,380,97,51,6,613,627,214,57,429,992,830,392
 A 4.486353 -1.198771 -2.533669 1_2_6_4_1 847,945,22,169,605,232,808,516,958,450,141,998,209,963
 A 3.544998 2.705824 0.958282 0_3_6_4 463,601,743,251,56,842,698,499,689,156,898,274,218
 A 0.285685 2.072458 3.120675 0_3_6_6 301,228,62,751,565,41,243,275,170,930,164,129,317,569,40
 A -4.523881 3.471413 -1.198257 0_3_7_4_1 67,397,213,93,610,533,594,643,946,993,739,585,766,173,206
 A 3.035625 1.346010 -2.033036 0_4_5_6_1 347,362,180,880,233,116,538,675,433,658,995,205,29,507,557,315
 A 1.301842 0.139336 -3.566628 0_2_8_4 789,664,377,47,661,279,263,244,788,621,771,955,629,44
 A 0.944194 1.159947 2.234487 0_2_8_4 184,170,490,936,592,526,781,746,478,211,40,41,160,129
 A 1.370890 -1.272909 2.829552 0_2_8_5 737,574,109,147,229,685,756,352,979,834,925,349,198,87,452
 A -3.115880 0.445433 1.803947 0_2_8_5 803,455,8,343,148,404,584,262,561,441,43,322,415,665,681
 A -0.309799 4.248747 -0.961911 0_3_6_4 579,483,103,414,412,308,355,24,231,735,401,602,885
 A -2.236777 -1.459978 -3.754758 1_2_7_4_0_1 429,703,710,775,744,835,249,440,427,873,50,61,25,992,51
 A -4.461637 -0.388496 -1.916882 0_4_4_8 101,571,638,605,158,958,998,974,136,327,232,515,945,373,336,728
 A 0.781161 1.152598 3.396293 0_2_8_5 184,41,243,275,930,160,936,40,164,445,901,552,490,474,48
 A 3.893201 1.482656 2.399963 4_1_4_3_4_1 702,54,842,988,970,678,851,298,893,49,597,20,543,363,987,669,56
 A 3.398106 3.825010 -4.174364 0_2_8_4 333,71,976,802,983,896,17,15,84,26,259,972,861,1
 A -3.723941 2.895446 -1.388511 0_1_10_3 206,161,67,213,946,585,289,572,216,454,748,877,852,766
 A 3.866072 -3.009316 -0.134406 1_0_9_3 673,102,138,908,59,261,13,922,587,364,714,513,967
 A -4.225594 -3.178200 2.923059 0_3_6_4 824,139,75,484,144,683,380,548,926,235,545,34,250
 A 0.258834 2.115560 -4.282952 0_2_8_4 387,301,23,385,631,968,529,152,930,366,393,228,462,275
 A -0.435301 -0.265845 -3.289429 0_1_10_3 292,427,954,146,846,374,302,889,810,629,661,47,306,887
 A 0.501879 4.397433 1.039363 0_1_10_2 578,600,672,498,860,284,666,473,521,480,412,556,530
 A -2.767038 -3.462351 3.586869 0_4_5_6_1 157,392,321,144,830,383,428,303,593,57,711,545,75,677,97,380
 A 2.435577 0.230255 -2.012034 0_2_8_5 29,162,347,280,33,515,377,913,771,337,362,658,704,89,971
 A -3.360895 -0.124947 3.724933 0_2_8_5 948,699,695,248,517,230,262,239,7,416,396,224,43,343,798
 A -0.078919 1.086689 -2.598798 0_4_5_5_1 385,661,306,822,207,376,187,146,846,793,622,621,273,512,529
 A 2.410407 -0.460639 0.662584 2_2_4_5_2 212,278,145,888,825,350,828,425,335,320,219,68,266,10,750
 A 1.803588 1.411662 3.143599 0_4_4_7 164,211,490,243,48,277,170,474,49,324,270,531,41,421,479
 A -1.389495 3.930070 0.627681 1_0_9_6 414,578,486,308,549,70,939,795,546,965,918,815,763,774,272,88
 A -4.441701 3.461307 1.740167 0_1_10_3 493,409,105,298,934,646,237,943,713,218,72,1000,898,251
 A -0.538299 2.126487 -2.284565 1_2_6_3_1 682,273,640,512,822,398,385,481,194,269,917,182,207
 A -1.200631 -3.930408 -3.083790 0_3_6_6 402,400,65,960,718,190,424,966,149,27,371,344,127,923,758
 A 3.066643 -2.667013 4.180974 0_0_12_4 867,709,34,833,234,475,406,821,639,115,204,858,69,110,796,551
 A -1.367931 -3.284122 -2.190939 0_2_8_5 402,220,477,188,758,859,718,354,390,27,111,424,612,960,108
 A 2.091367 -3.304803 -3.476209 1_2_7_3_2 563,265,353,14,882,833,537,339,338,707,611,446,406,959,796
 A 3.891281 4.359924 2.975936 0_2_8_5 508,554,934,782,824,411,646,839,1000,106,476,26,924,348,460
 A 3.171909 0.386678 4.162509 2_1_7_3_1_1 919,270,104,323,787,300,618,730,20,324,133,331,664,489,403
 A -1.629794 2.244766 -1.995384 0_3_7_6_1 481,269,187,799,289,130,223,806,153,207,312,848,822,413,950,435,917
 A -4.015577 1.865802 -3.946734 0_5_4_4_2 978,98,755,21,286,299,623,437,121,534,240,19,260,984,813
 A -4.032929 4.225543 -4.034112 1_1_8_4_1 866,976,121,346,125,997,904,677,245,71,894,853,84,60,909
 A -4.323627 -1.011539 1.169237 1_3_7_4_2_1 457,266,523,307,294,920,809,359,288,30,625,100,246,455,322,541,536,510
 A 2.474438 -1.291131 2.549695 1_2_7_3_2 722,87,616,296,352,574,583,425,858,737,756,726,165,52,716
 A 2.422922 -4.027342 3.303451 3_3_4_2_3_2 460,476,348,394,469,953,821,503,639,778,648,867,634,924,77,861,448
 A -1.936951 -0.527372 -2.419666 0_1_10_3 775,514,772,961,555,680,873,889,427,442,85,208,606,374
 A 0.322900 3.560182 3.560157 1_0_9_3 120,497,589,751,565,62,785,560,79,297,395,387,228
 A -2.581713 3.763572 3.035394 0_4_4_6 410,276,980,303,504,237,593,654,378,854,817,444,711,105
 A -0.906871 -1.752149 1.274777 0_3_6_4 805,467,313,895,257,956,883,520,247,456,399,940,63
 A 2.968184 -1.501506 4.571054 0_1_10_2 858,716,331,418,69,551,189,110,655,796,150,489,659
 A 3.631782 2.101732 -2.942731 0_2_8_4 162,557,880,675,116,981,426,947,11,813,240,534,333,995
 A -3.535716 3.410208 -2.305321 1_2_6_5_1 173,161,585,866,67,132,125,471,657,755,289,852,60,610,572
 A -1.082921 1.398522 -2.664613 0_1_10_5 385,182,306,481,187,194,822,435,961,376,846,982,848,889,312,221
 A -1.582943 -0.801250 -1.470608 1_2_7_4_2 580,719,432,314,905,465,961,374,200,630,688,553,442,514,606,823
 A 4.333594 -2.204682 -2.724628 0_1_10_4 741,488,113,450,963,645,808,158,516,686,267,384,325,998,141
 A 4.351679 -2.861205 1.525240 0_4_4_7 419,723,235,13,513,673,484,994,840,246,215,536,510,868,683
 A 1.924426 0.924145 2.110475 0_3_6_6 987,49,375,526,490,164,184,479,41,352,335,746,717,478,270
 A 2.680888 0.033467 -0.256765 1_2_7_4_2 320,757,494,278,734,825,145,708,29,280,704,266,183,888,10,466
 A -3.606382 3.745827 -0.686330 0_1_10_3 282,397,993,679,946,216,143,921,779,161,662,173,67,572
 A -3.592004 -2.883564 -3.731856 1_1_9_2_2 157,627,57,325,245,929,850,613,992,51,249,706,365,267,384
 A 3.353490 -2.260080 1.157436 0_2_8_4 523,536,100,102,874,68,241,138,419,673,210,583,994,616
 A -2.863438 2.785972 -0.836240 1_1_9_5_0_1 289,173,572,55,748,130,946,454,650,799,725,679,368,662,676,70,213
 A 3.106328 -1.454456 -1.588676 0_1_10_3 488,604,450,971,33,931,136,280,516,605,357,825,586,59
 A 3.954738 3.609589 1.094884 0_2_8_6 499,159,251,713,743,819,601,32,943,674,274,186,898,58,1000,558
 A 3.271110 0.096772 1.461722 0_5_4_5_2 320,466,266,669,987,375,970,425,335,183,294,54,457,523,792,296
 A -2.433238 -3.109448 -2.158105 1_2_7_4_2 744,477,402,577,706,687,624,390,570,341,937,844,190,663,27,108
 A -1.833901 0.909326 -3.510580 1_1_8_4_1 977,598,117,887,588,306,982,889,846,555,312,434,990,207,848
 A 0.659480 -2.881809 -2.905401 0_1_10_4 865,447,90,339,563,611,814,784,95,424,264,691,759,612,966
 A -1.882492 3.384998 -1.893624 0_2_8_5 471,295,371,269,917,103,806,194,289,799,483,676,82,401,572
 A -4.360823 -0.020798 3.544472 0_3_6_5 668,343,43,239,181,730,798,133,988,792,416,396,104,238
 A -4.272141 -4.023468 0.595182 0_2_8_5 513,868,131,967,13,864,32,723,364,819,282,72,397,340,943
 A 4.329371 1.571150 -1.103417 0_1_10_4 675,433,766,507,336,502,443,258,252,538,492,877,969,509,454
 A -2.508121 -1.183741 0.819050 1_2_7_3_0_1 540,155,872,63,313,752,30,920,288,940,910,386,665,985
 A 0.306513 2.604903 3.953097 0_2_8_3 930,243,366,589,565,201,176,275,160,301,62,395,387
 A 0.170934 -1.243241 2.696894 0_2_8_6 596,257,147,524,745,696,895,349,165,834,979,527,685,886,962,91
 A -2.990435 0.086774 -4.444166 0_3_6_5 181,798,7,434,517,598,990,286,710,837,703,248,857,699
 A 0.603790 4.240775 -1.527606 1_4_2_9_1 3,773,797,637,124,885,103,167,579,735,24,989,914,619,355,608,767
 A -3.781181 -0.600011 -2.946692 0_3_7_7_1 998,974,169,945,101,22,857,703,712,638,85,582,772,873,158,808,249,837
 A 1.869175 1.715025 -2.348017 0_1_10_6 811,875,626,315,880,617,319,788,362,337,501,162,506,793,912,347,78
 A 3.774820 -3.649230 4.449442 0_2_8_6 548,926,115,894,84,411,850,867,189,639,833,924,972,253,475,26
 A 4.002703 -3.301748 2.433899 1_2_7_3_2 723,839,419,58,460,824,34,634,484,994,926,175,210,683,139
 A -1.238630 2.401840 2.730623 0_2_8_5 118,62,569,66,932,317,126,444,817,468,140,301,37,642,801
 A -3.605091 4.204623 2.527857 1_4_4_5_3 646,186,105,409,408,504,711,303,545,782,378,72,139,487,202,854,75
 A 4.041828 -0.716679 3.338954 2_1_7_4_1_1 792,541,296,52,726,110,331,150,668,224,416,104,730,396,973,92
 A -3.942062 0.850775 3.540026 0_1_10_5 678,584,343,855,816,7,262,224,988,299,984,798,133,181,893,543
 A 4.297695 1.396390 -3.335726 0_2_8_7 195,286,623,300,46,74,813,534,995,116,101,205,426,443,675,21,571
 A 2.561183 -2.705715 1.767940 0_2_9_4_1 874,310,351,469,722,87,994,634,804,648,511,616,138,783,215,419
 A 1.898790 3.274355 4.537061 1_3_5_3_2 366,575,589,497,448,2,1,277,259,902,17,15,952,462
 A 1.296247 2.141087 3.534907 1_0_9_3 277,366,48,531,421,41,160,565,589,930,228,184,170
 A 2.014800 0.969689 -3.815374 0_3_6_6 787,323,618,48,279,788,163,771,116,362,506,393,902,377,664
 A -4.179368 -3.947166 -3.788851 0_1_10_4 214,365,57,909,60,566,929,253,850,84,677,196,325,894,997
 A -4.354033 -2.019921 1.061019 4_2_1_3_5 673,513,210,840,536,495,288,261,625,510,197,100,809,484,920
 A -0.640482 -2.300741 0.422309 1_4_4_4_3 431,956,520,883,203,907,456,496,423,293,360,63,940,694,576,762
 A -3.473931 -0.854846 4.461407 0_2_8_5 416,396,181,695,230,710,699,857,712,798,703,429,92,6,51
 A -3.054505 -1.604308 -3.196573 1_1_8_4_1 775,873,772,232,703,168,992,51,341,744,706,808,384,214,998
 A -4.467754 -2.295143 3.443820 1_2_6_6_1 548,613,115,175,144,380,110,34,973,135,484,92,6,926,52,416
 A 3.407524 3.080169 1.942936 0_1_10_4 898,842,159,56,900,298,934,851,499,770,558,186,1000,554,218
 A -4.413597 1.415913 -0.037659 0_1_10_4 226,336,502,509,492,466,461,258,829,693,156,454,869,73,845
 A 3.928797 -3.762983 -3.670355 0_1_10_4 113,14,405,325,245,850,909,84,234,475,882,833,566,972,983
 A -0.936603 -3.716643 4.232474 0_1_10_4 820,400,692,635,149,342,581,80,573,903,321,428,935,31,807
 A 0.332089 -3.469823 -0.228694 0_4_4_8 876,24,603,505,431,9,293,36,518,412,666,423,735,438,989,672
 A -2.555632 -2.675280 1.104019 1_2_5_4 288,313,155,131,927,63,840,456,334,732,107,892
 A -0.062931 -1.141804 1.675922 0_1_10_5 863,685,422,895,696,467,745,83,883,358,203,956,229,596,147,940
 A -3.770899 0.871241 -0.609099 0_3_6_5 389,829,535,881,373,55,327,461,336,226,252,969,693,454
 A 2.826118 3.458691 4.193384 0_2_8_5 938,448,476,277,242,802,508,26,1,768,861,2,15,172,17
 A -3.429351 2.309176 4.392435 0_3_7_4_1 567,816,410,831,98,19,299,285,437,346,195,276,826,7,984
 A 4.482077 -2.268731 -0.298527 3_0_8_1_3_1 174,102,59,305,38,957,495,246,673,136,809,908,100,967,307,513
 A -3.008375 0.502942 2.945947 0_1_10_2 855,372,404,517,948,181,43,415,7,239,166,584,343
 A 1.139188 -0.233347 4.503999 0_2_8_5 109,671,349,664,163,44,901,47,279,418,291,944,474,552,919
 A 0.449140 -3.637184 -3.825160 0_2_8_4 449,832,149,701,611,338,692,935,339,424,95,222,966,482
 A 2.092341 -3.965348 -2.663566 0_3_7_5_1 707,191,14,353,15,53,651,339,620,670,326,608,447,563,656,637
 A 3.552812 -0.393140 0.591378 0_4_5_6_1 100,307,197,457,219,523,320,183,461,708,68,10,212,466,294,425
 A -4.508621 -2.234262 -3.952067 0_1_10_4 808,51,712,92,551,963,645,475,209,115,613,214,850,384,325
 A 1.703840 -4.344421 -0.284450 0_4_4_7 4,769,721,309,876,472,81,284,773,290,879,666,24,603,619
 A -0.823439 2.884216 -1.710497 1_1_9_3_2 194,822,153,640,602,682,398,579,917,103,187,223,481,483,799,562
 A 2.464563 0.636431 3.476241 0_4_4_7 211,184,49,48,474,787,574,490,375,970,104,919,193,324,20
 A 0.626680 2.567120 -0.875605 0_4_4_8 682,525,602,273,891,3,355,797,381,916,78,811,906,579,640,370
 A -1.678020 -4.009111 0.250408 0_2_8_6 496,423,790,975,107,927,907,763,815,774,456,308,791,519,185,549
 A 0.193055 1.546563 -1.696185 0_1_10_4 811,512,640,182,822,187,682,912,891,39,622,793,884,271,376
 A 2.828430 3.570457 0.479028 0_3_6_7 159,218,499,4,32,601,674,290,391,81,698,558,151,436,42,463
 A -0.032787 1.479939 3.954051 0_3_6_6 40,170,445,160,317,301,552,464,930,152,176,968,500,776,228
 A -2.293960 3.092230 3.917589 2_2_6_2_4 849,697,733,202,410,980,260,567,826,817,37,654,831,904,126,140
 A 2.192829 2.538846 3.942366 0_2_8_6 184,48,243,938,448,259,1,242,421,589,768,902,366,531,323,324
 A 1.633317 -0.911725 0.018686 0_5_4_5_2 281,838,369,422,750,145,183,212,828,350,888,794,134,734,825,458
 A 1.175499 0.757707 -4.361115 0_2_8_4 930,152,393,664,244,163,48,474,552,263,788,661,47,787
 A 3.106545 -0.529294 -1.173994 0_2_8_5 29,708,728,212,704,971,825,10,931,136,33,217,180,605,515
 A 1.483332 -1.908466 0.302258 0_1_10_4 874,351,310,828,422,870,369,794,278,888,505,694,470,838,720
 A -3.620929 3.794617 0.319328 0_2_8_5 340,921,397,819,713,72,679,993,408,213,774,662,897,546,225
 A 0.244704 2.186146 0.830461 0_4_5_5_1 899,542,724,129,781,328,128,906,381,727,916,88,99,480,525
 A 1.014604 4.195581 0.195363 0_2_8_5 860,178,480,290,391,381,268,309,81,773,498,412,666,24,355
 A -4.157178 2.946638 3.878684 0_3_6_5 106,853,378,346,410,437,299,260,802,363,71,543,816,105
 A -3.617320 0.847520 -3.859601 0_3_6_8 19,7,984,598,230,582,117,46,857,101,798,195,978,623,240,21,837
 A -3.240879 -1.605282 -1.590122 0_4_4_7 305,112,86,141,38,570,937,998,341,958,974,772,688,442,514
 A -3.228839 -1.891295 1.035566 1_2_6_6_1 872,155,495,131,256,809,510,246,840,732,313,30,227,920,197,625
 A -2.770748 2.826014 -1.864805 0_1_10_4 572,471,206,173,216,223,194,806,799,748,676,413,657,852,130
 A 2.028056 3.621154 -0.187851 1_1_9_2_2 436,274,151,797,381,773,268,4,472,391,81,284,698,641,370
 A -0.131104 -0.164366 4.099814 1_1_9_2_2 302,962,944,263,47,445,524,18,749,949,552,464,901,349,500
 A -0.257483 -1.089071 -2.749116 0_2_8_6 111,719,606,427,374,177,615,146,823,753,738,810,954,629,784,759
 A 0.000745 -2.551117 -0.349941 2_4_2_4_4 431,423,255,762,836,360,438,505,694,518,496,36,369,576,247,354
 A -4.552267 0.003432 0.754935 0_3_6_5 461,266,466,829,8,455,322,219,307,359,197,457,54,869
 A -2.303661 4.351672 -1.651767 0_3_7_4_1 401,519,779,132,624,27,960,390,572,471,223,143,371,676,760
 A 3.327173 -0.581545 2.257229 0_4_4_8 238,541,792,104,726,523,583,425,970,375,574,198,352,52,219,457
 A -0.671894 4.020650 3.360472 1_0_11_4_2 62,395,126,849,342,785,201,560,444,647,118,951,581,79,903,80,786,654
 A 4.295509 2.376637 2.213181 2_2_7_2_3_1 893,543,363,171,851,842,934,251,900,105,417,493,186,898,702,678,597
 A -4.302263 1.867029 4.012300 0_1_10_2 816,285,260,437,363,114,984,239,623,195,543,893,133
 A 3.583032 0.976946 -4.315453 1_3_6_4_1_1 623,240,46,324,193,323,618,116,74,20,133,426,787,114,403,730