150
step:0 columns:name,pos cell:5.0,5.0,5.0 dt:0.001
A 0.819926 -1.760086 0.368450
A 0.290980 1.245790 -2.495344
A 2.484607 0.352450 1.371003
A -1.020620 -1.927986 0.663132
A -0.816276 2.062004 0.421107
A -0.322230 0.751391 -1.607461
A -1.595135 2.262852 -1.671871
A 1.890651 -0.623108 -0.608920
A 1.046703 0.461650 2.148453
A 2.102494 2.077016 -0.048818
A 0.162451 1.761205 0.442532
A -2.174664 0.643808 -1.462404
A -0.700083 -1.346258 2.163989
A 1.956404 2.423274 -2.307274
A -2.180021 1.253083 -0.613079
A -1.513521 -1.463041 -1.996530
A 0.961139 2.295941 0.567796
A -1.050631 -0.873367 0.633333
A 1.311121 -0.526285 -1.422479
A -0.575498 -0.407806 -0.435320
A -1.291701 1.139484 -1.215587
A -2.419682 0.826591 0.387692
A -1.735057 -1.697527 1.372509
A -1.298156 0.459169 -2.145087
A -0.285262 1.650869 -0.679676
A 1.477216 2.174516 1.499389
A -0.178579 -1.206220 -0.886876
A 0.023847 -2.410858 2.160806
A 1.813654 1.064266 1.493789
A -1.195255 1.054628 -0.204955
A -2.473268 -2.218422 0.558469
A 1.421245 -1.825473 2.027175
A -1.134814 -0.953666 -1.245404
A -1.738263 0.853585 1.874249
A -1.262462 -1.326131 -0.394669
A -1.721334 -0.322237 -1.816891
A -0.168455 -0.317723 -1.359438
A -0.446533 -1.592413 -0.015834
A 1.814487 -1.988882 -1.241650
A 1.194560 -2.316468 -0.499522
A -0.801086 -0.649738 -2.105719
A -1.980629 0.020648 2.258039
A 0.635195 0.358182 0.191492
A 0.226527 2.075090 -1.958585
A 1.818931 -1.112699 -2.022536
A 1.871463 -0.845246 1.385955
A -0.912791 -2.237019 1.648002
A 0.412919 0.623396 1.249854
A -1.585880 -0.145009 1.424069
A 0.991683 2.271928 2.356831
A 2.345827 -1.910067 -0.381282
A -0.364742 1.745790 1.400728
A 0.412277 -1.266344 2.088385
A 1.070561 1.611987 -0.195913
A 1.650713 1.408424 2.382962
A 2.396860 -2.233417 1.673383
A 0.112341 -2.445640 -0.321828
A 1.957917 -0.023542 2.225581
A -1.805416 1.414269 -2.202132
A -1.245230 1.963649 -0.600679
A 1.878166 1.063457 -0.867204
A -2.448543 1.818148 2.027418
A 1.613914 2.043144 -1.115768
A 0.211942 -0.890382 0.005990
A 0.491696 0.220091 -1.936766
A 1.647777 0.596303 -1.757021
A -1.713546 -2.269171 -0.156747
A -2.086142 -0.861945 0.917582
A -1.498588 0.719100 0.828236
A 0.903158 -1.108009 1.160288
A -1.667448 2.362864 1.016652
A -1.562187 -0.093983 -0.045692
A 0.429952 -0.812606 -2.007005
A -0.340485 -1.503591 -1.877463
A 0.524801 -1.774192 -1.199242
A 1.538205 -1.827633 1.042464
A 1.526229 0.957305 0.530504
A -0.850021 -2.036364 -1.040196
A -0.786900 -2.357793 -2.210282
A -0.640594 -0.418652 1.665778
A 0.558758 -0.260868 -0.707879
A 2.231277 -0.135803 0.354275
A -2.393646 -0.921863 -1.235805
A 1.201360 -0.709456 2.170437
A -2.290920 2.290475 -0.967826
A -1.157494 0.150535 -0.993116
A -2.429546 -1.903500 -1.981746
A -0.757095 1.076463 2.083342
A -2.485755 0.133283 -0.736826
A 1.823577 -1.075797 0.383839
A 1.224676 -1.331789 -0.551291
A 2.301922 1.769979 0.901062
A -1.838999 -1.822391 -1.155419
A 0.996709 1.460021 -1.804179
A 0.788247 0.810696 -0.960903
A 0.698403 -1.872496 -2.251441
A -0.118359 -1.133921 0.956985
A -0.706454 1.693483 -1.858481
A -0.058386 -2.216996 0.753295
A -0.204964 0.258121 2.283678
A 0.863992 1.407459 1.088262
A 0.662001 -2.038807 1.522817
A -2.188657 -0.947119 -0.136637
A 2.448536 0.810279 2.317902
A -1.718022 -2.170453 2.294751
A -0.358885 0.916987 0.433573
A -1.841856 1.687624 0.328763
A 2.295747 -0.125648 -1.745861
A -0.194979 -0.193540 0.539198
A -1.666596 -0.941630 2.150681
A -0.277061 0.634675 -0.537988
A -1.345425 1.897321 1.947148
A 0.630559 2.073598 -1.054191
A 1.095118 -0.481915 0.169374
A 2.292655 1.518377 -1.835096
A 1.424670 0.179046 1.200192
A 0.443551 -0.353864 1.649428
A 2.313815 -1.318314 2.166141
A -0.598965 0.475929 1.295549
A 1.490659 0.289644 -0.383489
B -2.415143 -0.468865 1.694212
B 0.222944 1.346575 -1.368011
B -2.034159 0.016020 0.637714
B 1.592032 -1.909414 0.141618
B -1.024017 -0.053580 0.765615
B -0.061534 -2.482058 -1.239292
B -1.759545 -1.484961 0.394406
B 1.324149 -0.056627 -2.205115
B -2.269758 1.218872 1.276858
B -0.542168 1.948573 2.338280
B -1.691297 -0.488245 -0.779467
B -2.235559 2.127625 -2.216005
B 0.444381 2.102936 1.378920
B -0.844505 -2.393493 -0.239214
B -1.095100 1.269862 1.307350
B 0.530541 -0.442912 0.749368
B 1.575586 1.798286 0.530761
B -1.082505 0.207221 2.017426
B 0.913064 1.451812 1.964202
B -1.934747 1.567775 -1.414172
B 1.087185 2.304333 -1.749038
B 0.632404 -0.998710 -1.208851
B -0.083844 -1.779947 1.637708
B -1.744068 0.534804 -0.572057
B 0.368346 -1.615276 -0.337470
B -0.850063 -1.335555 1.325522
B 2.282747 -1.468339 1.124882
B 1.579342 -1.933218 -2.081193
B -0.165737 -0.695280 2.372317
B -2.353518 -0.674529 -2.391479
150
step:1000 columns:name,pos cell:5.0,5.0,5.0 dt:0.001
A 0.665299 -1.744129 0.392138
A 0.177639 1.481651 2.455954
A -2.462673 0.257668 1.282625
A -0.958176 -1.882459 0.726856
A -0.772934 2.080872 0.211432
A -0.420436 0.914225 -1.428283
A -1.742338 2.452091 -1.789283
A 1.907404 -0.782315 -0.583070
A 1.102866 0.289620 2.309103
A 2.093257 2.011837 -0.188474
A 0.211487 1.695319 0.219678
A -2.135297 0.556067 -1.453354
A -0.741189 -1.526141 2.160009
A 1.779687 2.134742 -2.348700
A 2.391283 1.156630 -0.782484
A -1.384620 -1.386956 -1.866837
A 1.021834 2.250960 0.550063
A -1.034214 -0.858720 0.654794
A 1.196404 -0.436335 -1.292578
A -0.504954 -0.417168 -0.388985
A -1.551590 1.404485 -0.907869
A -2.360161 0.894792 0.258520
A -1.739362 -1.924807 1.366124
A -1.187026 0.410409 -1.975085
A -0.325038 1.650404 -0.815422
A 1.725399 2.099549 1.366764
A 0.177845 -0.983332 -1.060452
A 0.038179 -2.411170 2.161027
A 1.936592 1.032613 1.373599
A -1.215340 0.933042 -0.078211
A -2.398111 -2.229898 0.601561
A 1.463759 -2.069747 2.058794
A -0.824707 -0.820602 -1.292242
A -1.677237 0.867033 1.920736
A -1.230849 -1.199279 -0.411991
A -1.728006 -0.394825 -1.671415
A -0.204172 -0.098953 -1.590690
A -0.297214 -1.512230 0.029614
A 1.787997 -1.663277 -1.126792
A 1.159791 -2.339187 -0.367335
A -0.872575 -0.585133 -2.293223
A -1.855061 0.008274 2.373826
A 0.671020 0.548465 0.361452
A 0.128811 2.239333 -1.953708
A 1.703639 -1.134965 -1.960819
A 2.024972 -0.763601 1.195911
A -0.875688 -2.479557 1.610381
A 0.333622 0.667848 1.417800
A -1.486612 -0.039155 1.349689
A 0.850716 2.003297 1.956218
A 2.431491 -1.947113 -0.420529
A -0.201773 1.660751 1.490320
A 0.297652 -1.398738 1.981713
A 1.225845 1.460753 -0.041085
A 1.555280 1.137323 2.362382
A 2.481299 -2.420023 1.791532
A 0.094394 -2.434301 -0.353313
A 2.076251 -0.258791 2.291684
A -1.776913 1.333655 -2.185065
A -1.173435 2.343904 -0.966063
A 1.543947 1.624055 -1.009752
A -2.469674 1.653595 2.034329
A 1.381063 -2.456737 -1.617009
A 0.299003 -0.687717 0.127209
A 0.440748 0.623836 -1.916200
A 1.547729 0.636267 -1.705033
A -1.601425 -2.184730 -0.080433
A -1.978584 -0.912536 1.065703
A -1.561651 0.844479 0.893067
A 1.028738 -1.131039 1.159187
A -1.529590 2.002910 1.028111
A -1.604575 -0.334554 -0.058906
A 0.520851 -0.452011 -2.215236
A -0.052189 -1.324636 -2.008231
A 0.453557 -2.002728 -1.252308
A 1.659083 -1.949835 1.091274
A 1.643939 0.708378 0.496289
A -0.544637 -1.756530 -0.986530
A -0.681665 -2.194188 -1.911079
A -0.684201 -0.550991 1.674803
A 0.493241 -0.046648 -0.612650
A 2.220231 -0.258679 0.316391
A -2.330658 -1.055408 -1.217371
A 1.205879 -0.793185 2.150023
A 2.371860 2.352752 -1.199070
A -1.273828 0.156268 -0.952741
A -2.455681 -1.795351 -1.921864
A -0.830051 1.216770 2.419490
A -2.402286 -0.042805 -0.676695
A 1.888594 -1.369958 0.236618
A 0.980867 -1.186563 -0.444670
A -2.473072 1.776349 0.890516
A -1.699569 -1.857929 -1.021333
A 0.973362 1.631241 -1.961556
A 0.649413 0.969564 -0.962930
A 0.883929 -1.688508 -2.174071
A -0.138564 -1.128089 1.039414
A -0.816726 1.766798 -1.775378
A -0.111015 -2.438080 0.856257
A -0.183940 0.241631 2.293228
A 0.939336 1.340729 0.980438
A 0.670355 -2.114917 1.362633
A -2.153252 -1.115898 -0.155022
A 2.396443 0.679170 -2.452764
A -1.636421 -2.013623 2.388024
A -0.396263 0.887278 0.580020
A -1.889931 1.732893 -0.067349
A 2.077646 -0.202052 -1.647792
A -0.292953 -0.133577 0.834705
A -1.675645 -0.982220 2.090477
A -0.244380 0.557433 -0.427500
A -1.552149 2.060585 2.198322
A 0.615670 1.940168 -1.025634
A 1.263408 -0.449294 0.272181
A 2.228865 1.449051 -1.757475
A 1.246809 -0.032990 1.230836
A 0.364698 -0.462556 1.660055
A 2.336724 -1.375789 2.081208
A -0.720600 0.712227 1.470604
A 1.432287 0.403104 -0.493038
B -2.329098 -0.472401 1.762725
B 0.157396 1.534842 -1.530321
B -1.979576 -0.003737 0.643633
B 1.767428 -2.338025 0.310759
B -1.073187 0.271678 0.484272
B -0.338593 2.409779 -1.209677
B -1.773428 -1.535106 0.537947
B 1.398064 -0.302803 -2.135664
B -2.196043 1.083119 1.357597
B -0.697358 2.237103 2.405336
B -1.600590 -0.643087 -0.920756
B -2.389393 2.148355 -2.218224
B 0.469506 2.025222 1.172464
B -0.756493 -2.253800 -0.288659
B -1.102552 1.579667 1.655887
B 0.548850 -0.272478 0.833718
B 1.713891 1.571241 0.699141
B -1.008491 0.090368 2.161803
B 1.001382 1.106586 1.755268
B -2.101570 1.742308 -1.477345
B 0.897150 2.484994 -2.360521
B 0.820305 -1.216450 -1.518166
B -0.319481 -1.844695 1.453597
B -1.876068 0.612551 -0.581477
B 0.284659 -1.659847 -0.512725
B -1.209068 -1.179268 1.426945
B 2.498856 -1.605121 1.266341
B 1.766770 -1.951674 -2.115361
B -0.079238 -0.693922 2.364541
B -2.468705 -0.893417 -2.120584
150
step:2000 columns:name,pos cell:5.0,5.0,5.0 dt:0.001
A 0.611067 -1.759084 0.346330
A 0.136766 1.342007 -2.142860
A 2.445206 0.335574 1.336481
A -0.766326 -2.155830 0.686298
A -0.862870 1.812923 0.352567
A -0.458104 0.850933 -1.468686
A -1.475097 2.482351 -1.652058
A 1.903046 -0.911325 -0.598468
A 0.786338 0.232788 2.273844
A 2.236099 2.146364 -0.121210
A 0.367126 1.520998 0.106616
A -2.007170 0.455899 -1.371310
A -0.844130 -1.578202 1.836900
A 1.743245 1.871876 2.490236
A -2.451530 1.428098 -0.763835
A -1.412061 -1.504052 -1.916110
A 1.016770 2.206231 0.487104
A -1.096316 -0.662694 0.526185
A 1.411344 -0.267840 -1.187332
A -0.581701 -0.387254 -0.565595
A -1.378460 1.378781 -1.097588
A -2.420524 0.924953 0.189076
A -1.619781 -1.798327 1.113652
A -1.112880 0.253444 -1.987919
A -0.300420 1.608323 -0.664183
A 1.657893 2.146392 1.419198
A -0.033212 -1.019082 -0.962949
A 0.233620 2.331486 2.014739
A 1.860708 1.106157 1.573303
A -1.109523 0.905026 -0.171221
A 2.370246 -2.099892 0.808678
A 1.335443 -2.104385 2.189658
A -0.866456 -0.775145 -1.466691
A -1.663678 0.828874 1.803331
A -1.171345 -1.279077 -0.600566
A -1.827104 -0.512091 -1.695866
A -0.091669 -0.060178 -1.380198
A -0.426937 -1.268580 0.094913
A 1.517750 -1.639006 -1.156141
A 1.265067 -2.278264 -0.369511
A -1.142588 -0.671116 2.499510
A -1.952026 -0.024139 2.347174
A 0.523043 0.551144 0.327403
A 0.262564 2.395071 -1.933705
A 1.520598 -0.949017 -1.951206
A 1.942403 -0.671043 1.231558
A -0.816059 2.411078 1.641694
A 0.227836 0.409120 1.332712
A -1.619917 -0.116279 1.242468
A 0.952121 1.517618 2.036952
A 2.193917 -1.882474 -0.170557
A 0.064294 1.472477 1.622762
A 0.284117 -1.486397 2.029957
A 1.502630 1.385689 -0.074801
A 1.480980 0.817372 -2.352843
A 2.362683 -2.284733 1.840669
A -0.094785 -2.451211 -0.230310
A 1.843661 -0.095347 2.099174
A -1.622505 1.057221 -2.113700
A -1.106437 2.275679 -0.580810
A 1.726279 1.869553 -0.926936
A -2.391666 1.655042 2.049496
A 1.262484 -2.477925 -1.708941
A 0.262852 -0.564143 0.091929
A 0.740089 0.496002 -1.712191
A 1.839694 0.834975 -1.334572
A -1.593292 -2.138324 0.074950
A -2.051103 -0.937633 0.831664
A -1.627835 1.153246 0.816131
A 0.899400 -0.915338 1.040179
A -1.795282 2.211300 1.056353
A -1.545427 -0.019775 -0.079644
A 0.403311 -0.535266 -2.242130
A -0.223146 -1.387572 -2.052897
A 0.408658 -2.002571 -1.118831
A 1.572868 -1.630194 1.298572
A 1.625324 0.684967 0.655974
A -0.631115 -1.866918 -1.216847
A -0.632905 -2.313729 -2.348614
A -0.743416 -0.507043 1.565755
A 0.590627 -0.122255 -0.732140
A 2.375721 -0.248862 0.424577
A 2.433107 -1.240296 -1.385329
A 1.127155 -0.924587 2.043195
A 2.351260 -2.464832 -1.508079
A -1.123791 0.294736 -0.978159
A -2.471837 -1.902843 -2.250021
A -0.683861 1.061898 2.265151
A 2.498108 -0.161502 -0.696069
A 1.682316 -1.164521 0.347065
A 0.875026 -1.168038 -0.443808
A 2.381275 1.686556 0.783444
A -2.014997 -1.924040 -0.919320
A 1.049743 1.534623 -1.709093
A 0.918400 0.987339 -0.770848
A 0.771904 -1.612473 -1.969141
A -0.181619 -1.250838 1.047741
A -0.637369 1.927092 -1.699737
A -0.023369 2.172250 0.767879
A -0.374798 0.102103 2.296103
A 0.819922 1.227943 1.007278
A 0.640922 -2.113282 1.268204
A -2.160248 -1.079927 -0.221673
A 2.441950 0.756743 -2.487156
A -1.604251 -2.214621 2.139185
A -0.326313 0.974610 0.566018
A -1.807675 1.802000 -0.027396
A 2.193360 -0.076496 -1.912206
A -0.308941 -0.052721 0.678032
A -1.860265 -1.125510 1.886025
A -0.021562 0.648699 -0.586077
A -1.354991 1.790445 2.193587
A 0.659665 2.062489 -0.970884
A 1.233271 -0.305219 0.104838
A 2.459119 1.579958 -1.742219
A 1.200462 0.001917 1.216959
A 0.320006 -0.527109 1.684775
A 2.140110 -1.142058 2.133595
A -0.796568 0.504348 1.450663
A 1.606358 0.457975 -0.422130
B -2.446880 -0.450579 1.766024
B 0.305591 1.203223 -1.387093
B -1.995873 0.240733 0.620851
B 1.613488 -2.098364 0.470763
B -1.044732 0.512383 0.640902
B -0.139468 2.363461 -1.070486
B -1.459870 -1.353843 0.297899
B 1.270461 -0.129835 -2.140694
B -2.266312 1.183692 1.363930
B -0.390910 1.854884 2.420572
B -1.522240 -0.545865 -0.871211
B -2.164810 2.334969 -2.336296
B 0.818007 2.055425 1.301475
B -0.828589 -1.994434 -0.239285
B -0.866815 1.414038 1.526334
B 0.503256 -0.192949 0.775695
B 1.594915 1.599084 0.732620
B -1.155415 0.161800 2.068635
B 1.176743 0.746395 1.707234
B -1.940651 2.227069 -0.984978
B 0.936154 2.282433 -2.411678
B 0.719732 -0.793318 -1.278104
B -0.124239 -2.039355 1.591195
B -1.885054 0.606598 -0.459135
B 0.145563 -1.608966 -0.371146
B -1.367963 -1.036643 1.294177
B 2.468724 -1.500608 1.435473
B 1.699169 -1.866420 -1.996465
B -0.296022 -0.942821 2.192813
B -2.233601 -1.010560 -2.219932
150
step:3000 columns:name,pos cell:5.0,5.0,5.0 dt:0.001
A 0.257648 -1.805990 0.458496
A 0.209550 1.059485 -2.441391
A 2.341593 0.245858 1.434076
A -0.768492 -1.914798 0.652706
A -0.837598 2.074187 0.210019
A -0.489698 0.764546 -1.483270
A -1.704316 2.290134 -1.819323
A 1.922835 -0.821201 -0.521723
A 0.732648 0.049180 2.395097
A 2.132349 2.191567 -0.140791
A 0.600980 1.657652 -0.003447
A -2.045012 0.575946 -1.442240
A -0.843093 -1.448146 1.940460
A 1.801844 2.086801 -2.475529
A -2.446845 1.289420 -0.822736
A -1.334780 -1.579738 -2.016768
A 1.234039 2.311765 0.598393
A -1.104913 -0.746790 0.509324
A 1.416856 -0.269778 -1.209716
A -0.645873 -0.436459 -0.373884
A -1.423312 1.402347 -0.972419
A 2.486504 0.831196 0.034492
A -1.633654 -1.907918 1.237267
A -1.134112 0.197372 -1.969328
A -0.452890 1.495933 -0.687265
A 1.514059 2.114336 1.536619
A -0.005840 -1.089123 -0.949635
A 0.196681 2.406337 1.997051
A 1.818873 1.150131 1.600980
A -0.966008 0.819322 -0.037170
A -2.426588 -1.873906 0.572475
A 1.374641 -2.039662 2.123326
A -1.027691 -0.866143 -1.328518
A -1.707452 0.893837 1.723729
A -1.332064 -1.329263 -0.485818
A -1.819313 -0.532804 -1.862524
A -0.246424 -0.235099 -1.533360
A -0.395950 -1.373169 -0.174749
A 1.428680 -1.678965 -1.004320
A 1.001462 -2.392724 -0.451228
A -0.978684 -0.617942 -2.478670
A -1.868712 -0.019769 2.280183
A 0.665242 0.564454 0.350662
A 0.213044 2.261495 -1.911718
A 1.592940 -0.994285 -1.859266
A 1.829699 -0.730124 1.371892
A -0.759085 -2.430161 1.597040
A 0.276740 0.509646 1.391317
A -1.641628 -0.120174 1.251499
A 0.928784 1.731218 2.269058
A 2.402031 -1.751164 -0.454839
A -0.005047 1.443932 1.461764
A 0.190286 -1.472247 2.028585
A 1.531863 1.300124 -0.099311
A 1.427907 0.811225 -2.489208
A 2.355879 -2.450948 1.727160
A -0.060679 -2.455397 -0.372360
A 1.755013 -0.151758 2.236198
A -1.423844 1.189994 -2.011672
A -1.038750 2.346545 -0.889745
A 1.629159 1.839329 -0.914600
A -2.343616 1.624752 2.195745
A 1.382392 2.494199 -1.642098
A 0.274111 -0.691962 0.204194
A 0.640149 0.250941 -1.573721
A 1.872054 0.770312 -1.524724
A -1.670718 -2.345941 -0.083938
A -2.209257 -0.873259 1.043399
A -1.696767 0.965388 0.609168
A 0.888735 -1.070707 0.938885
A -1.622531 1.937535 1.140131
A -1.693805 0.082766 0.055991
A 0.541837 -0.692415 -1.925094
A -0.239630 -1.360047 -2.059969
A 0.314255 -1.998040 -1.247533
A 1.722027 -1.780121 1.190009
A 1.660440 0.573552 0.654660
A -0.694416 -1.879944 -1.339200
A -0.715767 -2.367446 -2.355004
A -0.696860 -0.361037 1.472380
A 0.655250 -0.236459 -0.624708
A 2.320436 -0.188334 0.466983
A -2.430613 -1.138976 -1.280028
A 1.089144 -0.931792 2.134432
A 2.310120 -2.481154 -1.258298
A -1.167608 0.222492 -0.873592
A -2.481375 -1.909969 -1.997481
A -0.746501 1.143162 2.098186
A -2.350505 0.049195 -0.652525
A 1.940701 -1.150298 0.440062
A 1.072974 -1.247050 -0.160871
A 2.434819 2.117085 0.803690
A -1.785652 -1.964445 -1.156079
A 1.012245 1.346496 -1.691095
A 0.784272 0.901623 -0.758697
A 0.737618 -1.620143 -2.112551
A -0.196574 -1.087324 0.993831
A -0.640575 1.787725 -1.735953
A 0.057439 2.222837 0.726732
A -0.270410 0.189860 -2.480223
A 0.966134 1.315867 1.002977
A 0.718237 -2.051991 1.308425
A -2.080747 -0.859184 0.009589
A 2.451929 0.646503 -2.499102
A -1.862404 -1.968038 2.226514
A -0.184965 1.168883 0.451590
A -1.989986 1.722644 -0.055644
A 2.242103 -0.138373 -1.876281
A -0.310296 0.160722 0.500642
A -1.704316 -0.967283 2.021847
A -0.125412 0.475761 -0.524587
A -1.462135 1.965679 2.173355
A 0.544458 1.925290 -1.040120
A 1.303955 -0.387929 0.351054
A 2.442462 1.642447 -1.711184
A 1.233046 0.045690 1.350736
A 0.297775 -0.474411 1.636144
A 2.266497 -1.330819 2.155886
A -0.782062 0.765860 1.143801
A 1.701906 0.390254 -0.430859
B -2.499698 -0.437558 1.932612
B 0.221506 1.127455 -1.455528
B -2.141481 0.302221 0.710253
B 1.660449 -1.816049 -0.076947
B -1.160476 0.104771 0.667071
B -0.261033 2.381985 -1.164732
B -1.530484 -1.554224 0.352372
B 1.451710 0.062933 -2.014924
B -2.317904 1.444348 1.234281
B -0.154199 1.840103 2.449727
B -1.697147 -0.661105 -0.779801
B -2.327052 2.379719 -2.434536
B 0.616698 2.131467 1.340441
B -0.922090 -2.042248 -0.260782
B -0.811977 1.591299 1.006826
B 0.535381 -0.092968 0.854752
B 1.805971 1.516271 0.833409
B -1.172654 0.256600 2.046609
B 1.049996 0.838396 1.772193
B -2.028341 2.016899 -0.977267
B 0.895735 2.463801 -2.303110
B 0.902997 -0.994183 -1.122080
B -0.122445 -2.011205 1.315583
B -1.832125 0.709991 -0.522837
B 0.468019 -1.757551 -0.404908
B -1.272291 -1.067284 1.303466
B -2.434536 -1.609858 1.444824
B 1.682710 -1.842421 -1.981276
B -0.068539 -0.649216 2.408764
B 2.410235 -1.000825 -2.100434
150
step:4000 columns:name,pos cell:5.0,5.0,5.0 dt:0.001
A 0.595178 -2.114161 0.345238
A 0.239553 1.000149 -2.363192
A -2.441401 0.174319 1.478489
A -0.761399 -1.989518 0.551165
A -0.962704 1.879517 0.250410
A -0.508886 0.826231 -1.508063
A -1.597215 -2.481825 -1.629189
A 1.870614 -0.783090 -0.525067
A 0.628900 -0.006497 2.324484
A 2.250704 2.192261 -0.214271
A 0.504514 1.800569 0.016106
A -2.125572 0.667277 -1.596987
A -0.780948 -1.426762 1.977008
A 1.763134 1.681980 -2.420045
A -2.435434 1.169273 -0.769824
A -1.528749 -1.479932 -1.873892
A 1.306389 2.169102 0.653551
A -1.070639 -0.699726 0.551540
A 1.398874 -0.309934 -1.405232
A -0.537365 -0.438885 -0.331814
A -1.502114 1.399694 -1.174756
A -2.116300 0.764505 0.086047
A -1.673309 -1.767312 1.270886
A -1.282983 0.435521 -2.106686
A -0.369172 1.597064 -0.698279
A 1.656223 2.109304 1.583068
A 0.022799 -1.133500 -1.016118
A -0.033474 -2.315175 2.166504
A 1.859592 1.024463 1.675504
A -1.067230 0.886108 -0.315409
A 2.468517 -2.088139 0.506655
A 1.730454 -2.307383 2.328119
A -0.909862 -0.794804 -1.233661
A -1.695033 0.797174 1.986884
A -1.190195 -1.254724 -0.398786
A -1.894674 -0.453146 -1.631429
A -0.074640 -0.176836 -1.315193
A -0.219312 -1.435701 0.010455
A 1.349764 -1.614097 -1.252474
A 1.329921 -2.365773 -0.438765
A -1.145425 -0.565176 -2.357701
A -2.060712 -0.045225 2.307713
A 0.843843 0.658447 0.104336
A 0.146545 2.022872 -1.967720
A 1.815203 -0.985077 -2.023820
A 1.951941 -0.711854 1.188600
A -0.799554 -2.497755 1.503695
A 0.147480 0.479185 1.622707
A -1.430432 -0.078297 1.328930
A 0.764152 2.003223 2.240509
A 2.142906 -1.755339 -0.474426
A -0.100752 1.744387 1.672991
A 0.191888 -1.395871 2.067717
A 1.671060 1.274028 0.006520
A 1.434260 0.636641 -2.457189
A -2.396103 -2.313215 1.800455
A -0.148480 -2.458798 -0.297812
A 1.869823 -0.279607 2.165218
A -1.622902 1.524122 -2.185120
A -1.162000 2.298268 -0.692984
A 1.661450 1.743192 -0.894825
A -2.416015 1.738978 1.893707
A 1.221011 2.418625 -1.764440
A 0.285395 -0.595253 0.314771
A 0.729027 0.384951 -1.525633
A 1.736774 0.820685 -1.382287
A -1.665899 -2.210258 0.036333
A -2.098636 -0.779935 0.918906
A -1.673749 1.220873 0.835517
A 0.849759 -1.325148 0.795302
A -1.886640 2.170486 0.881783
A -1.577788 -0.049617 -0.004497
A 0.616811 -0.826427 -1.831430
A -0.341117 -1.259889 -2.029188
A 0.324980 -1.996550 -1.463105
A 1.701133 -1.736487 1.255895
A 2.048039 0.602623 0.753996
A -0.732014 -1.802946 -1.109593
A -0.637989 -2.269730 -2.006315
A -0.572113 -0.411636 1.732709
A 0.731633 -0.288848 -0.640468
A 2.386373 -0.215564 0.239818
A 2.489963 -1.249350 -1.340627
A 1.138051 -0.988673 1.797547
A 2.188582 -2.396934 -1.326115
A -1.159950 0.115958 -1.031403
A -2.330896 -1.928124 -2.248362
A -0.687091 1.121085 2.287658
A 2.440969 -0.054209 -0.839322
A 1.777915 -1.250040 0.329250
A 0.941566 -1.302568 -0.226727
A 2.270144 1.676731 0.782110
A -1.916950 -1.834685 -0.889875
A 1.017531 1.397826 -1.809837
A 0.825574 1.118917 -0.774307
A 0.967314 -1.630045 -2.355438
A -0.267220 -1.204684 1.112901
A -0.747670 1.778506 -1.742057
A -0.056096 2.145375 0.792545
A -0.307984 0.142159 -2.327284
A 0.625109 1.149481 1.038226
A 0.747133 -2.196013 1.541675
A -2.151088 -1.010722 -0.267827
A 2.491915 0.863431 -2.476099
A -1.447396 -2.319150 2.314089
A -0.268423 1.058989 0.437312
A -1.861675 1.725747 -0.129643
A 2.221276 0.035066 -1.977598
A -0.441987 0.123408 0.612210
A -1.829399 -1.205593 2.084663
A -0.114183 0.488703 -0.586465
A -1.386895 1.785668 1.739333
A 0.576018 2.058085 -1.019059
A 1.307585 -0.273839 0.313251
A 2.471068 1.677196 -1.724053
A 1.347965 0.190170 1.421302
A 0.393453 -0.446025 1.343188
A 2.129803 -1.336828 2.006051
A -0.875435 0.867859 1.303930
A 1.544448 0.315428 -0.536733
B -2.407897 -0.638801 1.829027
B 0.252442 1.184054 -1.421514
B -2.006561 0.392677 0.845203
B 1.615132 -2.059371 0.430627
B -1.171942 0.706768 0.537203
B -0.278937 2.357238 -1.169651
B -1.658608 -1.439286 0.471419
B 1.240762 -0.515736 -2.361475
B -2.348098 1.090729 1.426650
B -0.767798 2.147362 2.280982
B -1.685697 -0.545139 -0.730471
B -2.179627 2.246803 -2.350299
B 0.692303 1.972739 1.195213
B -0.848064 -2.070019 -0.256433
B -0.728998 1.639541 1.090569
B 0.595836 0.167849 0.791051
B 1.411571 1.317091 0.881171
B -0.981443 0.241368 2.106058
B 0.788210 1.173221 1.988626
B -2.048223 2.250540 -0.761475
B 0.585048 -2.293412 -2.209509
B 0.936198 -0.936171 -1.092166
B -0.097974 -1.988661 1.167572
B -1.861836 0.607814 -0.710573
B 0.485612 -1.950504 -0.506121
B -1.282889 -0.959510 1.381149
B -2.470942 -1.549401 1.209281
B 1.913801 -1.860199 -1.871308
B -0.042178 -0.639893 -2.447816
B -2.339502 -0.930804 -2.268729
150
step:5000 columns:name,pos cell:5.0,5.0,5.0 dt:0.001
A 0.432017 -2.070299 0.652326
A 0.406168 0.861745 2.414307
A 2.420021 0.220207 1.325111
A -0.692298 -2.048686 0.561868
A -0.653793 1.635777 0.154261
A -0.707950 0.837248 -1.477145
A -1.660779 -2.459867 -1.662436
A 1.958846 -0.443382 -0.887044
A 0.636050 -0.125376 2.256763
A 2.126919 2.263272 -0.310637
A 0.396067 1.370224 -0.067053
A -2.104754 0.619508 -1.430447
A -0.939131 -1.608052 2.113587
A 1.825219 1.835453 2.479943
A -2.435408 1.373330 -0.711740
A -1.531772 -1.520780 -2.035217
A 1.107493 2.223541 0.575113
A -1.063550 -1.146601 0.927595
A 1.362800 -0.110922 -1.771471
A -0.582695 -0.485276 -0.431643
A -1.532331 1.448834 -1.121898
A -2.084509 0.668556 0.300777
A -1.696474 -1.919329 1.326267
A -1.397076 0.774859 -2.415140
A -0.364738 1.723475 -0.804756
A 1.644200 2.107315 1.482354
A 0.205381 -1.102467 -0.964305
A 0.056361 2.408437 2.167831
A 2.070403 1.198079 1.619178
A -0.951173 0.699980 0.041422
A 2.392749 -2.486440 0.834173
A 1.440428 -2.109588 2.236141
A -1.005062 -1.130352 -1.182884
A -1.766835 0.719513 1.655605
A -1.162335 -1.355361 -0.090263
A -1.504432 -0.110667 -1.757258
A -0.459654 -0.277216 -1.423442
A -0.085712 -1.433838 0.014850
A 1.185257 -1.706852 -1.167367
A 1.183719 -2.320297 -0.344911
A -1.031681 -0.603946 2.477525
A -1.987082 -0.136000 2.291320
A 1.060355 0.658787 0.075262
A 0.077193 1.887326 -1.886479
A 1.848327 -0.999777 -1.773528
A 1.841687 -0.630371 1.279614
A -0.847973 2.466649 1.498270
A 0.195388 0.471938 1.503945
A -1.421836 -0.187567 1.395316
A 0.773039 1.807452 2.241403
A 2.051689 -1.610755 -0.619287
A 0.012576 1.501262 1.671145
A 0.041898 -1.453739 2.166210
A 1.551561 1.468923 -0.059385
A 1.484779 0.843653 2.316903
A 2.411144 -2.249432 1.864690
A 0.019587 2.459025 -0.138941
A 1.837734 -0.127341 2.188229
A -1.781824 1.670758 -2.445461
A -1.193571 2.287591 -0.830383
A 1.680537 1.780092 -1.201466
A -2.116895 1.809986 1.468793
A 1.129999 2.406806 -1.827076
A 0.329274 -0.472808 0.086184
A 0.415167 0.411080 -1.656861
A 1.888729 0.791772 -1.540888
A -2.201343 -2.003834 -0.001763
A -2.127418 -0.887680 1.015731
A -1.364702 1.233723 0.789943
A 0.924581 -1.166166 0.623213
A -1.587209 2.297473 0.656977
A -1.371704 -0.421272 0.242269
A 0.509284 -0.622881 -1.802600
A -0.337671 -1.230789 -1.930576
A 0.361649 -2.202525 -1.294644
A 1.647250 -1.894624 1.142282
A 1.856505 0.708792 0.584525
A -0.520374 -1.892484 -0.791959
A -0.789105 -2.114906 -2.072155
A -0.355932 -0.460502 1.659255
A 0.814984 -0.049448 -0.742247
A 2.405530 -0.187759 0.320653
A -2.080643 -0.826186 -1.254060
A 0.940539 -1.080968 1.829687
A 2.209465 -2.370177 -1.288074
A -1.156505 0.210208 -0.817657
A 2.417951 -1.847435 -2.176169
A -0.507386 1.329651 2.494027
A -2.123360 0.012582 -0.674612
A 2.063715 -1.243233 0.374063
A 1.122922 -0.944331 -0.465088
A -2.481730 1.591523 0.396608
A -1.839715 -1.821114 -0.908708
A 0.975609 1.291847 -1.907227
A 1.072945 0.935586 -0.939175
A 0.829184 -1.552662 -2.114345
A -0.035647 -1.172164 1.050329
A -0.958995 1.824590 -1.783990
A 0.042232 1.983619 0.759267
A -0.371545 0.252225 -2.377149
A 0.800011 1.220640 0.893008
A 0.753666 -2.051142 1.544754
A -2.144909 -0.977320 -0.213004
A -2.437745 0.854483 2.449174
A -1.624030 -2.333028 2.336999
A -0.186210 0.984159 0.699438
A -1.622210 1.705380 -0.062897
A 2.457578 -0.140238 -1.844931
A -0.454239 -0.174911 0.665205
A -2.101682 -1.323614 2.166439
A -0.156812 0.514712 -0.649731
A -1.186250 1.561658 1.758949
A 0.646918 1.887572 -0.896011
A 1.441237 -0.323772 0.364887
A -2.474196 1.540731 -1.720487
A 1.311943 0.379905 1.382075
A 0.581278 -0.357026 1.206008
A 1.847732 -1.223141 2.167854
A -0.745308 0.636389 1.569018
A 1.981431 0.628016 -0.454657
B 2.468434 -0.586728 1.799248
B 0.032632 1.150504 -1.257390
B -1.976946 -0.058205 0.815141
B 1.256961 -1.972825 0.374243
B -1.187653 0.376762 0.827076
B -0.428762 2.483077 -1.345866
B -1.794947 -1.485552 0.500839
B 1.224103 -0.812125 -2.392619
B -2.308015 1.036128 1.051822
B -0.857102 2.219803 2.323755
B -1.515009 -0.583067 -0.691727
B -2.361606 2.276062 -2.141618
B 0.560791 2.119088 1.422898
B -1.269932 -2.361623 -0.024429
B -0.770601 1.783342 0.996976
B 0.429612 0.356024 0.548951
B 1.581253 1.550385 0.900146
B -1.183568 0.080881 2.115288
B 1.027773 1.186190 1.725637
B -2.176585 2.288527 -0.865430
B 0.161410 -2.130999 -2.092651
B 1.150426 -0.792773 -1.261902
B -0.132325 -2.041776 1.419816
B -1.692114 0.953428 -0.435416
B 0.588945 -1.747913 -0.501198
B -1.427088 -1.009181 1.729568
B 2.422668 -1.440457 1.435755
B 1.643123 -1.846222 -1.803995
B -0.178482 -0.567748 -2.438489
B -2.323964 -1.028351 -2.115399
150
step:6000 columns:name,pos cell:5.0,5.0,5.0 dt:0.001
A 0.385522 -2.012202 0.335545
A 0.186222 0.950201 -2.385797
A 2.452056 0.236719 1.468194
A -0.594841 -2.086193 0.573488
A -0.815867 1.837027 0.436776
A -0.630062 0.811412 -1.530444
A -1.788872 2.326687 -1.523856
A 1.746160 -0.636972 -0.569966
A 0.830754 -0.108859 2.444241
A 1.995157 2.304754 -0.147969
A 0.453175 1.777610 -0.121961
A -2.146300 0.841589 -1.455879
A -1.042328 -1.425840 1.580771
A 1.889284 1.668352 -2.457835
A 2.300372 1.212483 -0.598069
A -1.336879 -1.695658 -1.798583
A 1.101394 2.262167 0.417688
A -1.010112 -0.798394 0.755453
A 1.383118 -0.167912 -1.447873
A -0.748786 -0.500890 -0.166859
A -1.522183 1.496281 -1.020089
A -2.376444 0.618330 0.103059
A -1.543171 -1.826132 0.823693
A -1.492592 0.810302 -2.247513
A -0.399298 1.586902 -0.866776
A 1.727574 2.001445 1.503943
A 0.240977 -1.134965 -1.040249
A 0.062932 2.351025 1.838484
A 1.724872 0.881300 1.766128
A -0.970200 1.115626 -0.181731
A 2.367196 -2.354993 0.773254
A 2.033215 -2.310225 2.397818
A -0.978521 -0.773171 -1.270935
A -1.703386 0.782030 1.749045
A -1.235087 -1.378463 -0.371561
A -1.358101 -0.008834 -1.727827
A -0.293254 -0.119104 -1.146734
A -0.258911 -1.476119 -0.157951
A 1.188227 -1.559130 -1.222208
A 1.112155 -2.379727 -0.513987
A -1.252630 -0.967722 -2.457093
A -1.817137 -0.153260 2.327436
A 0.674628 0.380888 0.413904
A 0.192864 2.129784 -2.174167
A 2.128837 -1.211404 -1.472977
A 1.894359 -0.681323 1.235040
A -0.882115 -2.392744 1.557576
A -0.185350 0.366617 1.753344
A -1.255404 0.062866 1.240340
A 0.926524 1.582220 2.187213
A 1.942143 -1.701122 -0.422950
A 0.198537 1.325958 1.565745
A 0.314166 -1.534546 1.878090
A 1.365265 1.257679 -0.044240
A 1.376058 0.627591 -2.323560
A -2.143428 -2.441227 1.739833
A -0.150424 -2.421624 -0.463245
A 1.918881 -0.162681 2.231915
A -1.977939 1.670316 -2.354612
A -1.255856 -2.474807 -0.682934
A 1.523933 1.826250 -0.984815
A -2.360459 1.474084 1.583910
A 1.258518 2.451632 -1.849878
A 0.185363 -0.571983 0.104306
A 0.529753 0.359503 -1.641130
A 1.795095 0.710467 -1.377869
A -2.181350 -2.051261 -0.070692
A -2.001115 -0.688566 1.090258
A -1.629775 1.114805 0.674837