ITEM: TIMESTEP
0
ITEM: NUMBER OF ATOMS
256
ITEM: BOX BOUNDS pp pp pp
-3.1748 3.1748
-3.1748 3.1748
-3.1748 3.1748
ITEM: ATOMS id type xs ys zs
68 1 0.0997575 0.119176 0.0100038
105 1 0.118574 0.203818 0.141892
129 1 0.248499 0.150584 0.000770127
165 1 0.173268 0.0185035 0.127811
70 1 0.450655 0.077723 0.00877851
76 1 0.28527 0.151052 0.245806
145 1 0.402885 0.0278395 0.163001
221 1 0.357601 0.164036 0.106459
33 1 0.709796 0.18339 0.0414168
108 1 0.535558 0.0958753 0.137717
114 1 0.61489 0.0242299 0.0207682
247 1 0.675978 0.0980865 0.177566
16 1 0.98129 0.108514 0.182652
27 1 0.93752 0.146072 0.0545074
181 1 0.810279 0.155002 0.144974
190 1 0.952125 0.24339 0.230745
3 1 0.0180137 0.264741 0.015401
36 1 0.164217 0.478547 0.136547
201 1 0.0314099 0.380903 0.145337
241 1 0.15635 0.353901 0.0246504
22 1 0.290725 0.299717 0.00608542
40 1 0.274364 0.291562 0.15432
93 1 0.440136 0.322039 0.163166
119 1 0.338708 0.435152 0.10729
225 1 0.499124 0.481272 0.240585
5 1 0.717933 0.454937 0.14977
101 1 0.698509 0.29689 0.207782
197 1 0.559771 0.41956 0.114031
243 1 0.57445 0.263828 0.105855
56 1 0.78652 0.326591 0.0773813
92 1 0.872749 0.480041 0.0948296
246 1 0.893984 0.37494 0.234111
39 1 0.232367 0.680638 0.0319107
130 1 0.0167664 0.531953 0.167263
211 1 0.142533 0.68589 0.150156
217 1 0.0668814 0.594732 0.0133001
128 1 0.362876 0.590533 0.0748252
193 1 0.389503 0.715336 0.210724
222 1 0.490241 0.522603 0.0531734
230 1 0.276934 0.605975 0.208366
77 1 0.744196 0.649125 0.217996
80 1 0.612817 0.739451 0.183547
95 1 0.543429 0.69682 0.0595282
111 1 0.638655 0.585011 0.098318
220 1 0.511777 0.620284 0.200835
58 1 0.879309 0.537487 0.246564
138 1 0.955807 0.69706 0.135668
158 1 0.804109 0.614556 0.0930925
8 1 0.0336935 0.832865 0.13527
88 1 0.106941 0.929726 0.227334
89 1 0.184026 0.823597 0.0410325
153 1 0.0596195 0.957419 0.0476802
7 1 0.392806 0.751049 0.0534317
164 1 0.296655 0.978597 0.0565673
224 1 0.315028 0.837761 0.149688
6 1 0.519147 0.931566 0.122077
133 1 0.61234 0.836702 0.0250457
149 1 0.658925 0.939951 0.147121
1 1 0.775676 0.966021 0.232555
91 1 0.770827 0.791681 0.121773
109 1 0.932273 0.979137 0.127745
140 1 0.763665 0.937705 0.0216675
231 1 0.895354 0.843751 0.206523
11 1 0.127474 0.11272 0.25317
102 1 0.214106 0.154002 0.38859
163 1 0.222765 0.00646812 0.426713
255 1 0.0555137 0.00690122 0.404233
23 1 0.36807 0.0447335 0.36317
61 1 0.420676 0.173383 0.424743
238 1 0.456733 0.167644 0.25846
113 1 0.524032 0.0259119 0.274488
120 1 0.606971 0.169334 0.28779
121 1 0.673458 0.023233 0.356455
124 1 0.706298 0.120727 0.474482
212 1 0.533418 0.0691083 0.485786
244 1 0.627093 0.247167 0.431939
32 1 0.808964 0.156771 0.301254
159 1 0.85311 0.163683 0.457939
229 1 0.973937 0.143337 0.35272
256 1 0.828046 0.0181633 0.400626
166 1 0.187224 0.396935 0.277491
202 1 0.148134 0.479479 0.397443
208 1 0.033958 0.446038 0.292903
232 1 0.166763 0.311569 0.394646
253 1 0.0947493 0.273173 0.282408
20 1 0.277663 0.402501 0.452565
28 1 0.322102 0.452658 0.260169
87 1 0.438853 0.319995 0.364298
185 1 0.310065 0.275603 0.319077
216 1 0.443156 0.468519 0.41449
157 1 0.746371 0.441622 0.302977
213 1 0.590813 0.39348 0.374774
234 1 0.560033 0.308186 0.261164
50 1 0.898477 0.459912 0.372169
196 1 0.95369 0.286141 0.44756
223 1 0.769146 0.43733 0.457141
242 1 0.754948 0.297326 0.370263
60 1 0.0412624 0.747063 0.438314
67 1 0.0217195 0.738839 0.272031
175 1 0.144015 0.621636 0.457243
177 1 0.144626 0.592484 0.272053
249 1 0.0206706 0.533775 0.488156
35 1 0.391446 0.590514 0.317321
48 1 0.434632 0.649276 0.486688
73 1 0.289295 0.57486 0.476064
141 1 0.298578 0.708566 0.356738
209 1 0.481446 0.725348 0.345702
38 1 0.531014 0.580595 0.379757
53 1 0.644619 0.67526 0.340617
144 1 0.664511 0.538295 0.439957
169 1 0.624636 0.522099 0.281369
49 1 0.855383 0.573569 0.482709
69 1 0.886741 0.715981 0.367486
125 1 0.776847 0.58005 0.352611
168 1 0.752584 0.723112 0.463495
182 1 0.98933 0.61073 0.350137
10 1 0.17455 0.786574 0.265291
44 1 0.249168 0.994209 0.258756
54 1 0.125409 0.869655 0.393775
55 1 0.436961 0.88801 0.297159
110 1 0.38703 0.803085 0.452795
142 1 0.283667 0.874595 0.341792
79 1 0.543045 0.931775 0.41521
100 1 0.540079 0.791492 0.47448
112 1 0.590768 0.862824 0.259043
198 1 0.683607 0.865771 0.421697
17 1 0.756117 0.795855 0.288195
52 1 0.945055 0.876205 0.363374
162 1 0.946817 0.997888 0.275033
13 1 0.0558823 0.147145 0.502066
57 1 0.16547 0.160856 0.620145
207 1 0.137091 0.0107834 0.555406
41 1 0.310297 0.197768 0.673475
75 1 0.279811 0.0814917 0.554062
184 1 0.423758 0.188842 0.576999
191 1 0.291406 0.244363 0.501592
205 1 0.397502 0.038426 0.650818
34 1 0.562117 0.0424483 0.640103
65 1 0.636519 0.205312 0.590555
151 1 0.642352 0.12646 0.742255
106 1 0.993664 0.109994 0.654925
132 1 0.809216 0.180381 0.723184
161 1 0.805 0.0916089 0.596167
31 1 0.226159 0.369982 0.616724
42 1 0.0131473 0.393219 0.683706
43 1 0.17168 0.448937 0.731645
170 1 0.092735 0.294319 0.563236
226 1 0.119672 0.47254 0.593707
14 1 0.477805 0.316655 0.505968
37 1 0.348641 0.472689 0.719951
192 1 0.382648 0.490919 0.565516
210 1 0.377273 0.334054 0.624529
90 1 0.501594 0.445976 0.657626
148 1 0.540131 0.310089 0.668348
176 1 0.651443 0.356508 0.556308
186 1 0.554689 0.485228 0.52305
189 1 0.63376 0.488922 0.707057
248 1 0.698383 0.323167 0.702132
24 1 0.790135 0.287183 0.57084
62 1 0.802038 0.431924 0.616668
71 1 0.941606 0.418164 0.539548
251 1 0.937795 0.256178 0.628735
9 1 0.0877378 0.683241 0.596107
30 1 0.230449 0.595798 0.630182
179 1 0.0985905 0.576404 0.706944
2 1 0.494395 0.594561 0.63158
25 1 0.346221 0.649189 0.711358
74 1 0.599872 0.654115 0.520779
115 1 0.634788 0.671412 0.674031
18 1 0.900907 0.711335 0.575024
172 1 0.765255 0.629332 0.6177
180 1 0.910349 0.552303 0.641765
227 1 0.959575 0.666774 0.732704
64 1 0.245601 0.906041 0.572733
66 1 0.0885505 0.942633 0.742926
84 1 0.210939 0.799542 0.697638
171 1 0.198482 0.770982 0.500757
195 1 0.249894 0.990758 0.704985
233 1 0.0700643 0.865277 0.571183
19 1 0.398667 0.894178 0.642306
135 1 0.499454 0.762417 0.633155
152 1 0.382752 0.974375 0.509922
239 1 0.353773 0.753129 0.593971
94 1 0.686235 0.804013 0.576745
117 1 0.716598 0.968567 0.535359
218 1 0.574293 0.903282 0.57129
254 1 0.663335 0.967766 0.728384
83 1 0.864469 0.844036 0.513689
86 1 0.799696 0.754988 0.706881
122 1 0.971077 0.839643 0.689974
183 1 0.819146 0.911859 0.702336
206 1 0.937654 0.985449 0.569807
96 1 0.00780679 0.180925 0.817459
174 1 0.198397 0.133744 0.767703
199 1 0.113013 0.0554507 0.880137
219 1 0.132878 0.247587 0.900019
85 1 0.374346 0.144946 0.902397
104 1 0.429089 0.00530585 0.860489
146 1 0.270713 0.0197572 0.893801
155 1 0.489929 0.135854 0.752052
156 1 0.581119 0.0566067 0.875882
194 1 0.745915 0.24743 0.865047
228 1 0.525816 0.200148 0.968576
21 1 0.900324 0.218768 0.906629
136 1 0.762311 0.0870417 0.837783
167 1 0.816132 0.0787372 0.996338
204 1 0.961719 0.0604826 0.922835
99 1 0.142455 0.292368 0.754306
250 1 0.0120685 0.429362 0.994064
46 1 0.44028 0.406696 0.841951
63 1 0.291485 0.268932 0.840971
107 1 0.467503 0.354174 0.996573
137 1 0.271627 0.417223 0.882678
215 1 0.422103 0.270856 0.780887
15 1 0.631758 0.334416 0.967726
150 1 0.729448 0.481089 0.984119
188 1 0.565261 0.280185 0.82775
237 1 0.66708 0.411468 0.83455
51 1 0.994093 0.348204 0.839886
72 1 0.845113 0.372375 0.929969
126 1 0.866581 0.37392 0.762021
4 1 0.215655 0.524331 0.983202
45 1 0.0117755 0.647622 0.863506
139 1 0.170236 0.70684 0.880496
214 1 0.235449 0.597434 0.801041
240 1 0.111078 0.506777 0.872838
26 1 0.495093 0.565633 0.788577
29 1 0.475898 0.723235 0.798935
78 1 0.480735 0.634602 0.929455
154 1 0.3591 0.533774 0.927745
236 1 0.321006 0.706103 0.887749
47 1 0.605383 0.74805 0.883649
82 1 0.587966 0.503976 0.931857
178 1 0.712602 0.636492 0.964083
203 1 0.649862 0.598018 0.825241
12 1 0.880194 0.699959 0.969154
98 1 0.82183 0.651608 0.82478
123 1 0.779088 0.500833 0.791609
131 1 0.878458 0.542434 0.940595
143 1 0.939661 0.521835 0.792001
59 1 0.189609 0.864184 0.847978
103 1 0.0899757 0.759968 0.754859
187 1 0.0503024 0.751988 0.985901
245 1 0.0398025 0.872085 0.887497
116 1 0.461527 0.936557 0.985517
118 1 0.311366 0.86733 0.939861
134 1 0.323523 0.898466 0.784219
200 1 0.473357 0.806939 0.941521
160 1 0.656977 0.807848 0.756763
173 1 0.661801 0.904142 0.894663
235 1 0.519741 0.89523 0.794793
81 1 0.902577 0.798439 0.828043
97 1 0.768713 0.785561 0.918272
127 1 0.895549 0.915158 0.969549
147 1 0.930637 0.993012 0.775239
252 1 0.800016 0.949266 0.850649
ITEM: TIMESTEP
10
ITEM: NUMBER OF ATOMS
256
ITEM: BOX BOUNDS pp pp pp
-3.1748 3.1748
-3.1748 3.1748
-3.1748 3.1748
ITEM: ATOMS id type xs ys zs
68 1 0.0915534 0.119735 0.0167561
105 1 0.120391 0.213549 0.132098
129 1 0.246281 0.146917 -0.00197476
165 1 0.171666 0.0303638 0.124239
70 1 0.447559 0.0826089 0.0150997
76 1 0.284944 0.143085 0.240536
145 1 0.394492 0.0233303 0.171362
221 1 0.363152 0.170146 0.106339
33 1 0.699572 0.187654 0.0330539
108 1 0.533224 0.104448 0.134793
114 1 0.617602 0.0242744 0.0211908
247 1 0.684371 0.0913433 0.17746
16 1 0.994638 0.104989 0.189008
27 1 0.936491 0.148322 0.0455148
181 1 0.82253 0.157861 0.148694
190 1 0.946731 0.243505 0.229382
3 1 0.0202392 0.272855 0.0138266
36 1 0.167862 0.480691 0.136003
201 1 0.0325338 0.372626 0.145122
241 1 0.150333 0.358709 0.0267588
22 1 0.304431 0.300408 -0.00195982
40 1 0.268923 0.293369 0.162546
93 1 0.432076 0.320666 0.163248
119 1 0.337892 0.435877 0.100583
225 1 0.477464 0.464743 0.242205
5 1 0.719223 0.455708 0.148768
101 1 0.707044 0.294509 0.207997
197 1 0.574509 0.408633 0.119606
243 1 0.577076 0.256058 0.106187
56 1 0.78937 0.325694 0.075181
92 1 0.877209 0.471105 0.0925707
246 1 0.884775 0.385361 0.232514
39 1 0.238499 0.676789 0.0255747
130 1 0.0168298 0.541913 0.162556
211 1 0.13373 0.686858 0.148496
217 1 0.0665844 0.592629 0.0158403
128 1 0.354782 0.597789 0.0775331
193 1 0.38952 0.719399 0.212328
222 1 0.48794 0.530825 0.0470402
230 1 0.277973 0.604831 0.204686
77 1 0.740613 0.651242 0.222992
80 1 0.620295 0.737965 0.184089
95 1 0.538794 0.697784 0.0529127
111 1 0.640768 0.581055 0.100486
220 1 0.513161 0.62392 0.199788
58 1 0.878438 0.543909 0.237928
138 1 0.951781 0.691176 0.131883
158 1 0.809712 0.616302 0.0827014
8 1 0.0361945 0.828728 0.131559
88 1 0.101714 0.929927 0.236951
89 1 0.182663 0.831816 0.0421703
153 1 0.0607307 0.957293 0.0360449
7 1 0.38844 0.747114 0.0528411
164 1 0.303117 0.977494 0.0507187
224 1 0.308891 0.846264 0.154343
6 1 0.508655 0.925567 0.131362
133 1 0.614016 0.836361 0.0291217
149 1 0.667381 0.937612 0.144905
1 1 0.78681 0.968496 0.239967
91 1 0.768295 0.79066 0.117872
109 1 0.922099 0.974414 0.118261
140 1 0.75282 0.933306 0.026033
231 1 0.893889 0.842479 0.210558
11 1 0.126483 0.103439 0.265652
102 1 0.212275 0.156836 0.39041
163 1 0.223591 -0.000905712 0.42375
255 1 0.05326 0.0106794 0.404705
23 1 0.368793 0.0402681 0.358036
61 1 0.421949 0.176443 0.421355
238 1 0.448186 0.172326 0.258139
113 1 0.526014 0.021808 0.278832
120 1 0.611548 0.166088 0.297274
121 1 0.670879 0.021251 0.352274
124 1 0.703415 0.118649 0.473988
212 1 0.533868 0.0743152 0.485047
244 1 0.61731 0.247235 0.433552
32 1 0.807605 0.15512 0.303403
159 1 0.856418 0.16702 0.461199
229 1 0.976265 0.142821 0.353207
256 1 0.830398 0.0137 0.401211
166 1 0.18497 0.396079 0.265775
202 1 0.14807 0.4796 0.403188
208 1 0.0340413 0.443577 0.295891
232 1 0.168188 0.308883 0.417928
253 1 0.0879977 0.268166 0.273439
20 1 0.28563 0.406039 0.454714
28 1 0.331712 0.454023 0.264284
87 1 0.446502 0.323043 0.357151
185 1 0.299241 0.281355 0.320328
216 1 0.432919 0.462977 0.415233
157 1 0.753921 0.430745 0.300895
213 1 0.594488 0.402263 0.385174
234 1 0.554118 0.310863 0.255964
50 1 0.901992 0.45602 0.38061
196 1 0.95636 0.287684 0.445256
223 1 0.773377 0.427325 0.464436
242 1 0.761589 0.295583 0.369773
60 1 0.0364527 0.745065 0.441148
67 1 0.0226899 0.743275 0.272503
175 1 0.144276 0.628397 0.454811
177 1 0.135789 0.588798 0.281011
249 1 0.0172808 0.539271 0.486761
35 1 0.38951 0.587517 0.317579
48 1 0.433125 0.649428 0.488504
73 1 0.290469 0.575575 0.47096
141 1 0.293825 0.708981 0.357627
209 1 0.48155 0.729125 0.339904
38 1 0.529963 0.584889 0.383178
53 1 0.645144 0.683519 0.342375
144 1 0.667069 0.541428 0.440685
169 1 0.638773 0.531589 0.274764
49 1 0.858745 0.575458 0.488314
69 1 0.880616 0.721415 0.368162
125 1 0.782196 0.588573 0.352984
168 1 0.754435 0.717625 0.461252
182 1 0.99397 0.600326 0.349249
10 1 0.178117 0.785301 0.264646
44 1 0.252169 0.996456 0.258034
54 1 0.127197 0.87061 0.393421
55 1 0.433945 0.886873 0.295116
110 1 0.384144 0.809752 0.45046
142 1 0.285657 0.870082 0.347526
79 1 0.538505 0.934747 0.410623
100 1 0.543391 0.786083 0.474286
112 1 0.590132 0.868628 0.270986
198 1 0.686402 0.863089 0.418282
17 1 0.755647 0.79796 0.289449
52 1 0.945855 0.86937 0.369623
162 1 0.944235 0.996637 0.283636
13 1 0.053528 0.147245 0.498873
57 1 0.159758 0.164147 0.619382
207 1 0.127983 0.0144046 0.559624
41 1 0.307185 0.198316 0.6801
75 1 0.28205 0.0852031 0.552217
184 1 0.433268 0.182375 0.580094
191 1 0.290126 0.245799 0.503092
205 1 0.398784 0.0503618 0.657395
34 1 0.558673 0.0463381 0.637821
65 1 0.635955 0.199717 0.59335
151 1 0.648612 0.134486 0.741604
106 1 0.995904 0.10837 0.65763
132 1 0.812084 0.1874 0.722813
161 1 0.807148 0.0891442 0.597395
31 1 0.231106 0.362169 0.61231
42 1 0.0138937 0.394446 0.685666
43 1 0.177626 0.446387 0.744061
170 1 0.0905934 0.297649 0.561995
226 1 0.116478 0.475378 0.583129
14 1 0.486109 0.320907 0.511635
37 1 0.345005 0.473899 0.723625
192 1 0.381299 0.490088 0.564002
210 1 0.379758 0.336587 0.627961
90 1 0.490036 0.447227 0.665931
148 1 0.541412 0.294156 0.669408
176 1 0.648376 0.363623 0.551436
186 1 0.550908 0.483983 0.524143
189 1 0.641126 0.49348 0.701411
248 1 0.70148 0.321067 0.706432
24 1 0.792187 0.279072 0.566273
62 1 0.798161 0.437957 0.621683
71 1 0.937928 0.412252 0.541012
251 1 0.93808 0.257866 0.628606
9 1 0.0848037 0.688211 0.594704
30 1 0.230285 0.594159 0.624255
179 1 0.0882589 0.581716 0.715514
2 1 0.492114 0.602272 0.630638
25 1 0.356869 0.650997 0.714787
74 1 0.601319 0.654654 0.52118
115 1 0.628672 0.671998 0.680649
18 1 0.905397 0.706806 0.576066
172 1 0.768871 0.622932 0.61274
180 1 0.911659 0.548586 0.636196
227 1 0.953305 0.674996 0.720014
64 1 0.25014 0.902362 0.569951
66 1 0.0897464 0.944262 0.740331
84 1 0.226865 0.802806 0.689344
171 1 0.201394 0.768745 0.500695
195 1 0.241438 1.00094 0.699524
233 1 0.0717609 0.863122 0.568155
19 1 0.402646 0.885101 0.644808
135 1 0.506175 0.762879 0.635308
152 1 0.387435 0.970806 0.501911
239 1 0.343202 0.748655 0.592588
94 1 0.690508 0.800722 0.582782
117 1 0.718675 0.969237 0.537936
218 1 0.567587 0.908066 0.575708
254 1 0.666961 0.966046 0.730962
83 1 0.861452 0.850401 0.510886
86 1 0.801324 0.754884 0.704521
122 1 0.965395 0.84081 0.68732
183 1 0.817015 0.912387 0.693325
206 1 0.937853 0.983776 0.568434
96 1 0.0164507 0.177096 0.807486
174 1 0.198464 0.133958 0.774915
199 1 0.113768 0.0478474 0.870209
219 1 0.134624 0.245072 0.904793
85 1 0.372345 0.15399 0.894471
104 1 0.425712 0.00894971 0.849054
146 1 0.269005 0.0192079 0.892676
155 1 0.486237 0.132522 0.753411
156 1 0.581079 0.0579984 0.871097
194 1 0.741917 0.250689 0.865162
228 1 0.529942 0.204067 0.963654
21 1 0.891852 0.220138 0.912835
136 1 0.759877 0.0941623 0.842191
167 1 0.812086 0.0764997 0.991114
204 1 0.960583 0.0580271 0.921419
99 1 0.141494 0.291668 0.747454
250 1 0.00963445 0.433012 0.99112
46 1 0.442971 0.413676 0.84451
63 1 0.277954 0.265262 0.84266
107 1 0.464928 0.354723 0.996441
137 1 0.267415 0.415663 0.878968
215 1 0.422839 0.269811 0.771471
15 1 0.633896 0.334242 0.97267
150 1 0.733999 0.477107 0.986566
188 1 0.572492 0.278681 0.829143
237 1 0.666076 0.405067 0.83759
51 1 1.00061 0.347692 0.845425
72 1 0.845957 0.37445 0.929197
126 1 0.861521 0.368975 0.757572
4 1 0.214878 0.525128 0.990438
45 1 0.0155677 0.64617 0.875634
139 1 0.162754 0.708979 0.886217
214 1 0.234649 0.588083 0.801664
240 1 0.105356 0.505562 0.870014
26 1 0.493406 0.559959 0.787612
29 1 0.472977 0.726556 0.791573
78 1 0.480952 0.635804 0.930112
154 1 0.364541 0.535472 0.923925
236 1 0.329956 0.706732 0.888153
47 1 0.610302 0.741841 0.889871
82 1 0.581207 0.503141 0.932053
178 1 0.712242 0.640899 0.963288
203 1 0.651635 0.601664 0.821382
12 1 0.888168 0.69971 0.974035
98 1 0.820981 0.651155 0.826174
123 1 0.782131 0.505206 0.789277
131 1 0.8793 0.540693 0.941331
143 1 0.944097 0.516605 0.794574
59 1 0.185772 0.865168 0.847657
103 1 0.0774174 0.755495 0.761731
187 1 0.0476051 0.751679 0.989947
245 1 0.0354438 0.876621 0.88643
116 1 0.459279 0.935269 0.988637
118 1 0.317121 0.863594 0.945545
134 1 0.336876 0.88917 0.788575
200 1 0.473835 0.790972 0.928701
160 1 0.658602 0.81102 0.751079
173 1 0.653922 0.907982 0.891975
235 1 0.520365 0.892763 0.792724
81 1 0.903801 0.799308 0.830474
97 1 0.762934 0.790589 0.917206
127 1 0.90986 0.910057 0.968993
147 1 0.936141 0.996119 0.774282
252 1 0.804179 0.937869 0.853546
ITEM: TIMESTEP
20
ITEM: NUMBER OF ATOMS
256
ITEM: BOX BOUNDS pp pp pp
-3.1748 3.1748
-3.1748 3.1748
-3.1748 3.1748
ITEM: ATOMS id type xs ys zs
68 1 0.0776598 0.115179 0.0143157
105 1 0.128062 0.229373 0.120845
129 1 0.242583 0.140952 0.994704
165 1 0.171103 0.0495849 0.121044
70 1 0.438104 0.084578 0.0107123
76 1 0.28292 0.140636 0.23333
145 1 0.381412 0.0199263 0.188814
221 1 0.370241 0.187354 0.10729
33 1 0.689543 0.189383 0.0173666
108 1 0.532488 0.111992 0.142367
114 1 0.619781 0.0264465 0.021409
247 1 0.697292 0.0832236 0.177963
16 1 0.0123024 0.0977996 0.18255
27 1 0.93827 0.150246 0.0434649
181 1 0.835818 0.163704 0.150736
190 1 0.928063 0.247543 0.225286
3 1 0.0160421 0.285338 0.00867298
36 1 0.172451 0.489174 0.136567
201 1 0.0333124 0.361744 0.14798
241 1 0.153208 0.368023 0.0288077
22 1 0.323642 0.301433 0.989436
40 1 0.257915 0.296887 0.168599
93 1 0.416462 0.317355 0.160826
119 1 0.334624 0.439008 0.0872424
225 1 0.476119 0.44611 0.242401
5 1 0.733303 0.455909 0.149453
101 1 0.720666 0.287281 0.210849
197 1 0.588003 0.403599 0.123408
243 1 0.578954 0.245319 0.109851
56 1 0.796141 0.321496 0.0691654
92 1 0.886083 0.45558 0.0850225
246 1 0.879717 0.394469 0.2242
39 1 0.237087 0.682745 0.0156898
130 1 0.0204934 0.552917 0.158465
211 1 0.118279 0.685368 0.142165
217 1 0.0680112 0.588361 0.0210079
128 1 0.353476 0.598322 0.0779997
193 1 0.38466 0.729626 0.212863
222 1 0.486757 0.532665 0.0529276
230 1 0.265935 0.602787 0.20913
77 1 0.74639 0.65231 0.215917
80 1 0.62668 0.745978 0.182222
95 1 0.53791 0.700622 0.0523104
111 1 0.641957 0.578471 0.101604
220 1 0.513945 0.620192 0.20113
58 1 0.874995 0.5583 0.224724
138 1 0.944464 0.683338 0.127374
158 1 0.816342 0.614475 0.0759552
8 1 0.0400172 0.82668 0.128539
88 1 0.0913969 0.933213 0.252071
89 1 0.181405 0.845687 0.0435746
153 1 0.0635429 0.956799 0.0154398
7 1 0.379622 0.750533 0.0511843
164 1 0.311266 0.981427 0.043237
224 1 0.298055 0.863004 0.164112
6 1 0.498812 0.911221 0.152341
133 1 0.615622 0.83601 0.035826
149 1 0.668457 0.927795 0.158461
1 1 0.802608 0.972924 0.251807
91 1 0.76491 0.787227 0.109032
109 1 0.903919 0.972174 0.10736
140 1 0.753094 0.922258 0.0171434
231 1 0.893818 0.838277 0.217746
11 1 0.128317 0.0893872 0.288007
102 1 0.210607 0.15808 0.396666
163 1 0.223835 0.990785 0.422796
255 1 0.0509592 0.0141732 0.407925
23 1 0.37413 0.0342814 0.347834
61 1 0.422171 0.182409 0.416574
238 1 0.435967 0.180887 0.257558
113 1 0.525799 0.0226591 0.278766
120 1 0.618311 0.161345 0.30911
121 1 0.670085 0.0142495 0.344493
124 1 0.700401 0.115284 0.469792
212 1 0.536024 0.0857594 0.480012
244 1 0.600119 0.249375 0.437681
32 1 0.803987 0.147253 0.309754
159 1 0.862249 0.168711 0.467182
229 1 0.979114 0.145572 0.351103
256 1 0.833366 0.00509306 0.407636
166 1 0.180461 0.391963 0.255994
202 1 0.150178 0.474987 0.414218
208 1 0.0336129 0.438043 0.296956
232 1 0.160346 0.307299 0.441246
253 1 0.0880415 0.263279 0.275984
20 1 0.294742 0.408935 0.45888
28 1 0.32083 0.447173 0.274293
87 1 0.447721 0.322542 0.350639
185 1 0.284459 0.291043 0.326678
216 1 0.422609 0.463303 0.413857
157 1 0.755976 0.425449 0.305373
213 1 0.600606 0.415396 0.396763
234 1 0.562964 0.314353 0.24668
50 1 0.908124 0.451329 0.392411
196 1 0.964813 0.291344 0.436521
223 1 0.778616 0.411202 0.47645
242 1 0.772336 0.283264 0.376008
60 1 0.0243082 0.741849 0.447294
67 1 0.0226181 0.749274 0.275056
175 1 0.144034 0.637366 0.446992
177 1 0.130758 0.583891 0.290325
249 1 0.00839032 0.548572 0.490406
35 1 0.386744 0.588797 0.319696
48 1 0.428616 0.653667 0.490647
73 1 0.291558 0.576984 0.456945
141 1 0.284339 0.706025 0.360564
209 1 0.483386 0.737965 0.33097
38 1 0.531142 0.584477 0.386103
53 1 0.642524 0.702013 0.349139
144 1 0.67943 0.541395 0.443715
169 1 0.647642 0.543819 0.262045
49 1 0.861753 0.576697 0.491767
69 1 0.877734 0.726228 0.365723
125 1 0.795195 0.596657 0.356478
168 1 0.75474 0.707286 0.463821
182 1 0.989491 0.590655 0.341907
10 1 0.185485 0.782235 0.260396
44 1 0.251172 0.985501 0.255819
54 1 0.126839 0.868727 0.394796
55 1 0.425668 0.884155 0.287732
110 1 0.386522 0.817753 0.453311
142 1 0.283531 0.866541 0.352766
79 1 0.52888 0.936432 0.412486
100 1 0.548031 0.785453 0.471439
112 1 0.595435 0.872556 0.288274
198 1 0.689961 0.860115 0.416873
17 1 0.755003 0.803918 0.288094
52 1 0.950506 0.860012 0.381909
162 1 0.942139 0.994145 0.292587
13 1 0.0474971 0.150947 0.493372
57 1 0.151028 0.170546 0.621706
207 1 0.114101 0.0186133 0.567987
41 1 0.303517 0.199702 0.687244
75 1 0.285495 0.0906921 0.546235
184 1 0.451455 0.176617 0.585135
191 1 0.29383 0.247158 0.509399
205 1 0.390993 0.0530312 0.666909
34 1 0.55702 0.0585142 0.638969
65 1 0.639393 0.188266 0.592277
151 1 0.656917 0.151458 0.739862
106 1 0.000819184 0.103996 0.659925
132 1 0.819471 0.201997 0.723009
161 1 0.812691 0.0856322 0.602419
31 1 0.2307 0.353233 0.606816
42 1 0.0168361 0.398929 0.690816
43 1 0.184135 0.440966 0.750339
170 1 0.0802757 0.306508 0.564135
226 1 0.118781 0.475828 0.573471
14 1 0.49895 0.329799 0.517849
37 1 0.334151 0.477784 0.732168
192 1 0.377234 0.491227 0.565842
210 1 0.386224 0.336939 0.631569
90 1 0.484574 0.441572 0.684937
148 1 0.54122 0.276694 0.670976
176 1 0.646776 0.370782 0.548455
186 1 0.539188 0.487773 0.529191
189 1 0.650966 0.499295 0.686625
248 1 0.706499 0.315545 0.709584
24 1 0.790706 0.268439 0.558855
62 1 0.786299 0.446561 0.632719
71 1 0.931376 0.403329 0.545562
251 1 0.940672 0.260323 0.628811
9 1 0.0785457 0.697203 0.594964
30 1 0.230392 0.592297 0.616476
179 1 0.073197 0.587131 0.729347
2 1 0.486582 0.609797 0.630003
25 1 0.365644 0.647079 0.72101
74 1 0.607558 0.652133 0.52749
115 1 0.624482 0.669807 0.688991
18 1 0.912664 0.706272 0.565568
172 1 0.765833 0.612391 0.608404
180 1 0.921768 0.53953 0.632453
227 1 0.940764 0.682713 0.714674
64 1 0.25908 0.904077 0.560569
66 1 0.0910944 0.945434 0.730308
84 1 0.240299 0.804367 0.687917
171 1 0.20773 0.76617 0.499182
195 1 0.232571 0.0119301 0.692456
233 1 0.0753215 0.857808 0.561577
19 1 0.410148 0.879589 0.646142
135 1 0.51623 0.767162 0.63396
152 1 0.397943 0.966109 0.492741
239 1 0.330163 0.736068 0.584623
94 1 0.696277 0.796932 0.591806
117 1 0.720755 0.966095 0.543137
218 1 0.556882 0.909893 0.580297
254 1 0.67193 0.971793 0.734432
83 1 0.852171 0.858418 0.507795
86 1 0.805281 0.752649 0.699049
122 1 0.954646 0.845078 0.679253
183 1 0.813239 0.917568 0.67444
206 1 0.940234 0.981152 0.565417
96 1 0.0279755 0.172799 0.794923
174 1 0.197303 0.137564 0.78768
199 1 0.108108 0.0312315 0.861879
219 1 0.13333 0.238513 0.913913
85 1 0.375087 0.166681 0.882494
104 1 0.420647 0.015034 0.832882
146 1 0.267697 0.0161848 0.88882
155 1 0.488007 0.131638 0.761775
156 1 0.58149 0.0617571 0.862647
194 1 0.732259 0.259943 0.865658
228 1 0.535287 0.206286 0.954797
21 1 0.881791 0.220388 0.915306
136 1 0.758372 0.0964536 0.848316
167 1 0.803308 0.070145 0.988163
204 1 0.959026 0.0528507 0.916435
99 1 0.137141 0.286957 0.733845
250 1 0.00362522 0.443496 0.985816
46 1 0.449121 0.419502 0.847997
63 1 0.261598 0.262512 0.835966
107 1 0.463645 0.357813 0.998647
137 1 0.261236 0.416765 0.877069
215 1 0.416281 0.275661 0.766373
15 1 0.638612 0.336079 0.985988
150 1 0.737606 0.472306 0.989926
188 1 0.582032 0.272701 0.826911
237 1 0.669551 0.40381 0.839883
51 1 0.0115967 0.346084 0.854474
72 1 0.849964 0.379368 0.924533
126 1 0.855602 0.35618 0.7517
4 1 0.21627 0.5225 0.995802
45 1 0.0116765 0.642169 0.881882
139 1 0.158162 0.710066 0.894168
214 1 0.235624 0.57743 0.806149
240 1 0.0937423 0.502937 0.870568
26 1 0.491572 0.554065 0.786459
29 1 0.47578 0.731455 0.774396
78 1 0.483247 0.634015 0.91913
154 1 0.366398 0.535248 0.9173
236 1 0.341421 0.705421 0.885493
47 1 0.618313 0.734598 0.894104
82 1 0.576063 0.498947 0.925949
178 1 0.713223 0.644131 0.964214
203 1 0.655254 0.60286 0.818335
12 1 0.90025 0.706154 0.977386
98 1 0.821219 0.655213 0.831699
123 1 0.785944 0.507454 0.784424
131 1 0.881969 0.539068 0.94226
143 1 0.953928 0.507088 0.797421
59 1 0.186806 0.868301 0.846431
103 1 0.0699274 0.755895 0.769738
187 1 0.0428534 0.754721 0.997953
245 1 0.0346606 0.88447 0.877397
116 1 0.458892 0.924768 0.984549
118 1 0.323727 0.851695 0.952352
134 1 0.354155 0.873436 0.794026
200 1 0.467841 0.788638 0.9183
160 1 0.660154 0.813954 0.74613
173 1 0.637919 0.915873 0.887808
235 1 0.519603 0.887952 0.786495
81 1 0.905732 0.798446 0.835452
97 1 0.758004 0.796982 0.918488
127 1 0.91926 0.898033 0.976136
147 1 0.943519 0.000219103 0.769787
252 1 0.810388 0.926386 0.855038
ITEM: TIMESTEP
30
ITEM: NUMBER OF ATOMS
256
ITEM: BOX BOUNDS pp pp pp
-3.1748 3.1748
-3.1748 3.1748
-3.1748 3.1748
ITEM: ATOMS id type xs ys zs
68 1 0.0788539 0.111102 0.000175621
105 1 0.130041 0.235269 0.106408
129 1 0.242276 0.13721 0.99289
165 1 0.175662 0.064679 0.124436
70 1 0.431897 0.0804477 -0.0017537
76 1 0.271852 0.145563 0.230026
145 1 0.380936 0.0211909 0.192011
221 1 0.37019 0.191194 0.0989558
33 1 0.69075 0.181161 -0.00116209
108 1 0.52643 0.0989458 0.151591
114 1 0.620298 0.0291828 0.0233837
247 1 0.705293 0.0794154 0.178335
16 1 0.0246876 0.0916172 0.169003
27 1 0.933438 0.15189 0.0443231
181 1 0.824142 0.159605 0.148894
190 1 0.924343 0.255018 0.232372
3 1 0.00122932 0.293568 0.00432468
36 1 0.172047 0.500847 0.142146
201 1 0.0326656 0.357813 0.153602
241 1 0.164269 0.37771 0.0270982
22 1 0.329377 0.296632 0.981095
40 1 0.257107 0.299492 0.1639
93 1 0.412213 0.329932 0.164887
119 1 0.329347 0.439959 0.0741909
225 1 0.489531 0.441941 0.241498
5 1 0.756566 0.456453 0.154175
101 1 0.73604 0.276982 0.214944
197 1 0.594253 0.412599 0.121626
243 1 0.580383 0.249014 0.108369
56 1 0.802855 0.310966 0.0611773
92 1 0.891463 0.447601 0.0739038
246 1 0.88539 0.400705 0.2202
39 1 0.233797 0.693169 0.0210914
130 1 0.0245268 0.547432 0.169824
211 1 0.108127 0.68317 0.13733
217 1 0.0743565 0.588292 0.0156904
128 1 0.35221 0.596804 0.0795423
193 1 0.372387 0.738335 0.210011
222 1 0.493312 0.524546 0.0646334
230 1 0.255979 0.606371 0.216206
77 1 0.757231 0.661964 0.204836
80 1 0.623055 0.75978 0.18167
95 1 0.536147 0.699691 0.055859
111 1 0.642742 0.578673 0.0978843
220 1 0.510494 0.614841 0.20493
58 1 0.874442 0.567059 0.211088
138 1 0.941697 0.688933 0.130638
158 1 0.818628 0.600775 0.0743216
8 1 0.0402659 0.838487 0.138775
88 1 0.0810164 0.933268 0.260884
89 1 0.183276 0.857957 0.0439656
153 1 0.0684978 0.955797 0.00217278
7 1 0.378796 0.756812 0.0574929
164 1 0.314407 0.989406 0.0413597
224 1 0.292318 0.873943 0.167469
6 1 0.496416 0.894758 0.16031
133 1 0.614954 0.839056 0.0381008
149 1 0.66963 0.916313 0.174986
1 1 0.800495 0.973826 0.254682
91 1 0.767359 0.780937 0.0980921
109 1 0.884882 0.979062 0.108616
140 1 0.759038 0.91543 0.00811987
231 1 0.898455 0.833872 0.221393
11 1 0.130598 0.077398 0.304973
102 1 0.214477 0.159266 0.410592
163 1 0.222064 0.995425 0.426529
255 1 0.0499706 0.00934073 0.420316
23 1 0.379705 0.0331032 0.345606
61 1 0.417757 0.184242 0.41882
238 1 0.429984 0.188929 0.256813
113 1 0.522209 0.0269082 0.277086
120 1 0.624588 0.158585 0.312974
121 1 0.675055 0.00247774 0.339197
124 1 0.704958 0.1105 0.457094
212 1 0.541544 0.0949221 0.469915
244 1 0.589429 0.248967 0.439114
32 1 0.800239 0.128387 0.314215
159 1 0.873496 0.160563 0.469805
229 1 0.977849 0.15194 0.340387
256 1 0.833769 -0.00304499 0.423905
166 1 0.162963 0.390113 0.257794
202 1 0.151688 0.468549 0.420667
208 1 0.0298064 0.432098 0.296271
232 1 0.154025 0.308791 0.445071
253 1 0.0883678 0.253628 0.28677
20 1 0.28596 0.399751 0.465102
28 1 0.305322 0.442114 0.286593
87 1 0.443258 0.322337 0.347456
185 1 0.274706 0.295513 0.339018
216 1 0.43096 0.472749 0.407172
157 1 0.744023 0.43059 0.322564
213 1 0.601857 0.421145 0.397866
234 1 0.582165 0.311009 0.252164
50 1 0.911619 0.447554 0.398584
196 1 0.976505 0.296392 0.421872
223 1 0.785486 0.40049 0.482583
242 1 0.78075 0.270352 0.388401
60 1 0.016521 0.733932 0.451013
67 1 0.0241204 0.751483 0.279576
175 1 0.139734 0.637401 0.436553
177 1 0.133248 0.578294 0.294067
249 1 0.0119108 0.558012 0.498061
35 1 0.386419 0.595506 0.316595
48 1 0.428955 0.658774 0.483716
73 1 0.29051 0.572156 0.443816
141 1 0.275844 0.702649 0.363462
209 1 0.487566 0.74471 0.32655
38 1 0.539669 0.58202 0.386406
53 1 0.639583 0.717959 0.35474
144 1 0.696963 0.539297 0.451627
169 1 0.648139 0.548275 0.258169
49 1 0.854109 0.571976 0.491689
69 1 0.880673 0.729199 0.359401
125 1 0.803343 0.594103 0.347852
168 1 0.753789 0.700525 0.475425
182 1 0.969242 0.589876 0.332898
10 1 0.187945 0.777722 0.249162
44 1 0.232241 0.973936 0.258195
54 1 0.1203 0.85916 0.398975
55 1 0.414137 0.881461 0.28623
110 1 0.396413 0.814391 0.461884
142 1 0.278149 0.861162 0.355724
79 1 0.524664 0.936721 0.419675
100 1 0.55385 0.788254 0.46734
112 1 0.599471 0.866062 0.300988
198 1 0.69453 0.859792 0.427899
17 1 0.754017 0.810742 0.279543
52 1 0.958664 0.868508 0.390902
162 1 0.953601 0.996647 0.295716
13 1 0.0419541 0.160385 0.493316
57 1 0.147064 0.173401 0.622519
207 1 0.10489 0.0190434 0.574167
41 1 0.300106 0.198933 0.685267
75 1 0.288061 0.0920396 0.539108